 Gaussian 16, Revision A.03,
 Gaussian 16:  ES64L-G16RevA.03 25-Dec-2016

 --------------------------------
 # B3LYP/6-31G** opt=Modredundant
 --------------------------------

 --
 G2
 --
 Symbolic Z-matrix:
 Charge =  1 Multiplicity = 1

 SCF Done:  E(RB3LYP) =  -1040.37484424     A.U. after   15 cycles
 SCF Done:  E(RB3LYP) =  -1040.37951397     A.U. after   12 cycles
 SCF Done:  E(RB3LYP) =  -1040.37975629     A.U. after   11 cycles
 SCF Done:  E(RB3LYP) =  -1040.37977587     A.U. after    9 cycles
 SCF Done:  E(RB3LYP) =  -1040.37977955     A.U. after    7 cycles
 Optimization completed.
    -- Stationary point found.

                         Standard orientation:
 ---------------------------------------------------------------------
 Center     Atomic      Atomic             Coordinates (Angstroms)
 Number     Number       Type             X           Y           Z
 ---------------------------------------------------------------------
      1          6           0        6.755222    1.604006   -0.108677
      2          6           0       -6.457999   -0.575964    0.264244
      3          6           0        6.669544    0.500271   -0.959525
      4          6           0        5.849598    1.745548    0.945444
      5          6           0       -5.848624   -0.570884   -0.991716
      6          6           0       -5.696725   -0.340399    1.410428
      7          6           0        5.679390   -0.462556   -0.757841
      8          6           0        4.858612    0.784903    1.149770
      9          6           0       -4.478021   -0.330563   -1.103100
     10          6           0       -4.325925   -0.099764    1.302333
     11          6           0        4.772861   -0.321311    0.296828
     12          6           0       -3.715585   -0.094701    0.044691
     13          6           0       -1.862690    1.458051   -0.221741
     14          6           0       -0.424962   -0.873679    1.189024
     15          6           0       -0.584467   -1.116180   -1.335659
     16          6           0        0.588060   -2.016834    1.226555
     17          6           0        0.429808   -2.257163   -1.282854
     18          6           0       -1.374015   -0.989624   -0.017939
     19          6           0       -2.262562    3.950210   -0.410636
     20          6           0        3.695517   -1.367024    0.517375
     21          6           0       -2.913655    2.577759   -0.215620
     22          6           0        2.419739   -1.022317   -0.257053
     23          7           0       -2.293038    0.154903   -0.069512
     24          7           0        1.350717   -2.110297   -0.084932
     25          8           0       -0.680857    1.790521   -0.328676
     26          1           0        7.526417    2.351327   -0.265725
     27          1           0       -7.523850   -0.762049    0.349869
     28          1           0        7.374150    0.390110   -1.777804
     29          1           0        5.917361    2.603257    1.607189
     30          1           0       -6.440856   -0.753199   -1.882766
     31          1           0       -6.171532   -0.343519    2.386388
     32          1           0        5.620549   -1.318459   -1.425841
     33          1           0        4.158388    0.903827    1.972661
     34          1           0       -4.015420   -0.329074   -2.085704
     35          1           0       -3.744285    0.082142    2.201307
     36          1           0       -1.018599   -0.893700    2.108157
     37          1           0        0.098031    0.084852    1.174743
     38          1           0       -0.074985   -0.177557   -1.568058
     39          1           0       -1.287485   -1.299911   -2.153924
     40          1           0        1.320311   -1.887228    2.024532
     41          1           0        0.078343   -2.973718    1.375759
     42          1           0       -0.084052   -3.218764   -1.181675
     43          1           0        1.054770   -2.292584   -2.177066
     44          1           0       -2.008478   -1.873000    0.106965
     45          1           0       -1.714702    4.000442   -1.354099
     46          1           0       -1.555345    4.173843    0.390829
     47          1           0       -3.035880    4.723519   -0.418148
     48          1           0        4.065789   -2.348100    0.186193
     49          1           0        3.479716   -1.495662    1.584454
     50          1           0       -3.450995    2.568850    0.738368
     51          1           0       -3.628980    2.404920   -1.026574
     52          1           0        2.624702   -0.969506   -1.327437
     53          1           0        1.967915   -0.087921    0.075924
     54          1           0        1.873376   -2.990268   -0.033979
 ---------------------------------------------------------------------

 The electronic state is 1-A.
 Alpha  occ. eigenvalues --  -19.21149 -14.60658 -14.47236 -10.39275 -10.39236
 Alpha  occ. eigenvalues --  -10.38505 -10.38320 -10.36247 -10.33278 -10.32730
 Alpha  occ. eigenvalues --  -10.32686 -10.32562 -10.30330 -10.29064 -10.29053
 Alpha  occ. eigenvalues --  -10.28796 -10.28741 -10.28612 -10.28604 -10.28390
 Alpha  occ. eigenvalues --  -10.28170 -10.28139 -10.27940 -10.27335 -10.24411
 Alpha  occ. eigenvalues --   -1.15794  -1.12980  -1.04868  -0.96435  -0.95345
 Alpha  occ. eigenvalues --   -0.93609  -0.92834  -0.91166  -0.85572  -0.84604
 Alpha  occ. eigenvalues --   -0.84355  -0.83876  -0.83596  -0.80605  -0.79659
 Alpha  occ. eigenvalues --   -0.78228  -0.73858  -0.71235  -0.70501  -0.70471
 Alpha  occ. eigenvalues --   -0.70319  -0.70113  -0.68065  -0.65991  -0.64750
 Alpha  occ. eigenvalues --   -0.63624  -0.62736  -0.60556  -0.59164  -0.59056
 Alpha  occ. eigenvalues --   -0.58830  -0.57320  -0.57163  -0.56620  -0.55412
 Alpha  occ. eigenvalues --   -0.54749  -0.54394  -0.54203  -0.53896  -0.53670
 Alpha  occ. eigenvalues --   -0.53356  -0.51724  -0.51523  -0.51406  -0.50840
 Alpha  occ. eigenvalues --   -0.50579  -0.49570  -0.49355  -0.48823  -0.47564
 Alpha  occ. eigenvalues --   -0.46092  -0.45789  -0.45328  -0.45058  -0.44308
 Alpha  occ. eigenvalues --   -0.44257  -0.43804  -0.43566  -0.42968  -0.42140
 Alpha  occ. eigenvalues --   -0.35391  -0.35292  -0.34837  -0.34407  -0.34241
 Alpha  occ. eigenvalues --   -0.33780
 Alpha virt. eigenvalues --   -0.11021  -0.10466  -0.10153  -0.09961  -0.09603
 Alpha virt. eigenvalues --   -0.07381  -0.05745  -0.05090  -0.03834  -0.03069
 Alpha virt. eigenvalues --   -0.02298  -0.01750  -0.01045  -0.00148   0.00173

 Mulliken charges:
               1
     1  C   -0.076814
     2  C   -0.070968
     3  C   -0.082376
     4  C   -0.081997
     5  C   -0.092993
     6  C   -0.092914
     7  C   -0.115027
     8  C   -0.110998
     9  C   -0.081498
    10  C   -0.081753
    11  C    0.105865
    12  C    0.173461
    13  C    0.578287
    14  C   -0.207958
    15  C   -0.207334
    16  C   -0.106502
    17  C   -0.106631
    18  C    0.072872
    19  C   -0.301329
    20  C   -0.298709
    21  C   -0.270950
    22  C   -0.071382
    23  N   -0.527241
    24  N   -0.445834
    25  O   -0.527972
    26  H    0.115525
    27  H    0.116202
    28  H    0.112651
    29  H    0.113194
    30  H    0.115354
    31  H    0.115133
    32  H    0.085300
    33  H    0.087257
    34  H    0.096437
    35  H    0.095593
    36  H    0.147016
    37  H    0.168639
    38  H    0.171410
    39  H    0.146769
    40  H    0.166852
    41  H    0.158439
    42  H    0.156719
    43  H    0.166906
    44  H    0.121934
    45  H    0.121689
    46  H    0.121351
    47  H    0.108630
    48  H    0.124513
    49  H    0.133818
    50  H    0.134787
    51  H    0.134090
    52  H    0.163451
    53  H    0.194938
    54  H    0.334096
 Sum of Mulliken charges =   1.00000

 Dipole moment (field-independent basis, Debye):
    X=              1.8014    Y=             -8.1881    Z=              0.0967  Tot=              8.3845
 Quadrupole moment (field-independent basis, Debye-Ang):
   XX=            -78.7017   YY=           -124.0938   ZZ=           -131.4978
   XY=             -3.3349   XZ=             -3.5295   YZ=              4.4176

 Normal termination of Gaussian 16 at Mon Feb  5 15:34:25 2024.
