 Gaussian 16, Revision A.03,
 Gaussian 16:  ES64L-G16RevA.03 25-Dec-2016

 ----------------------------------------------------------------------
 # HF/6-31G** SCRF=(Solvent=Water) POP=MK iop(6/50=1) geom=allcheck gue
 ss=read
 ----------------------------------------------------------------------

 Structure from the checkpoint file:  "G2.chk"
 --
 G2
 --
 Charge =  1 Multiplicity = 1

                         Standard orientation:
 ---------------------------------------------------------------------
 Center     Atomic      Atomic             Coordinates (Angstroms)
 Number     Number       Type             X           Y           Z
 ---------------------------------------------------------------------
      1          6           0        6.755222    1.604006   -0.108677
      2          6           0       -6.457999   -0.575964    0.264244
      3          6           0        6.669544    0.500271   -0.959525
      4          6           0        5.849598    1.745548    0.945444
      5          6           0       -5.848624   -0.570884   -0.991716
      6          6           0       -5.696725   -0.340399    1.410428
      7          6           0        5.679390   -0.462556   -0.757841
      8          6           0        4.858612    0.784903    1.149770
      9          6           0       -4.478021   -0.330563   -1.103100
     10          6           0       -4.325925   -0.099764    1.302333
     11          6           0        4.772861   -0.321311    0.296828
     12          6           0       -3.715585   -0.094701    0.044691
     13          6           0       -1.862690    1.458051   -0.221741
     14          6           0       -0.424962   -0.873679    1.189024
     15          6           0       -0.584467   -1.116180   -1.335659
     16          6           0        0.588060   -2.016834    1.226555
     17          6           0        0.429808   -2.257163   -1.282854
     18          6           0       -1.374015   -0.989624   -0.017939
     19          6           0       -2.262562    3.950210   -0.410636
     20          6           0        3.695517   -1.367024    0.517375
     21          6           0       -2.913655    2.577759   -0.215620
     22          6           0        2.419739   -1.022317   -0.257053
     23          7           0       -2.293038    0.154903   -0.069512
     24          7           0        1.350717   -2.110297   -0.084932
     25          8           0       -0.680857    1.790521   -0.328676
     26          1           0        7.526417    2.351327   -0.265725
     27          1           0       -7.523850   -0.762049    0.349869
     28          1           0        7.374150    0.390110   -1.777804
     29          1           0        5.917361    2.603257    1.607189
     30          1           0       -6.440856   -0.753199   -1.882766
     31          1           0       -6.171532   -0.343519    2.386388
     32          1           0        5.620549   -1.318459   -1.425841
     33          1           0        4.158388    0.903827    1.972661
     34          1           0       -4.015420   -0.329074   -2.085704
     35          1           0       -3.744285    0.082142    2.201307
     36          1           0       -1.018599   -0.893700    2.108157
     37          1           0        0.098031    0.084852    1.174743
     38          1           0       -0.074985   -0.177557   -1.568058
     39          1           0       -1.287485   -1.299911   -2.153924
     40          1           0        1.320311   -1.887228    2.024532
     41          1           0        0.078343   -2.973718    1.375759
     42          1           0       -0.084052   -3.218764   -1.181675
     43          1           0        1.054770   -2.292584   -2.177066
     44          1           0       -2.008478   -1.873000    0.106965
     45          1           0       -1.714702    4.000442   -1.354099
     46          1           0       -1.555345    4.173843    0.390829
     47          1           0       -3.035880    4.723519   -0.418148
     48          1           0        4.065789   -2.348100    0.186193
     49          1           0        3.479716   -1.495662    1.584454
     50          1           0       -3.450995    2.568850    0.738368
     51          1           0       -3.628980    2.404920   -1.026574
     52          1           0        2.624702   -0.969506   -1.327437
     53          1           0        1.967915   -0.087921    0.075924
     54          1           0        1.873376   -2.990268   -0.033979
 ---------------------------------------------------------------------

 SCF Done:  E(RHF) =  -1033.69935801     A.U. after   13 cycles

 The electronic state is 1-A.
 Alpha  occ. eigenvalues --  -20.53708 -15.70638 -15.60560 -11.36444 -11.30676
 Alpha  occ. eigenvalues --  -11.30496 -11.30448 -11.29196 -11.28644 -11.25704
 Alpha  occ. eigenvalues --  -11.25369 -11.24731 -11.24728 -11.24592 -11.24561
 Alpha  occ. eigenvalues --  -11.24541 -11.24499 -11.24397 -11.24173 -11.24158
 Alpha  occ. eigenvalues --  -11.24063 -11.24034 -11.23880 -11.23760 -11.21617
 Alpha  occ. eigenvalues --   -1.38654  -1.33454  -1.26542  -1.16125  -1.15253
 Alpha  occ. eigenvalues --   -1.10499  -1.07538  -1.06318  -1.04223  -1.02383
 Alpha  occ. eigenvalues --   -1.01759  -1.01305  -0.99891  -0.93402  -0.90383
 Alpha  occ. eigenvalues --   -0.89364  -0.87083  -0.83787  -0.83733  -0.83052
 Alpha  occ. eigenvalues --   -0.80541  -0.80184  -0.75833  -0.74430  -0.71463
 Alpha  occ. eigenvalues --   -0.70367  -0.69229  -0.68841  -0.67674  -0.65798
 Alpha  occ. eigenvalues --   -0.65691  -0.64547  -0.63458  -0.62540  -0.62452
 Alpha  occ. eigenvalues --   -0.62152  -0.61633  -0.60355  -0.59317  -0.58995
 Alpha  occ. eigenvalues --   -0.58683  -0.58447  -0.57961  -0.56759  -0.55661
 Alpha  occ. eigenvalues --   -0.54699  -0.53305  -0.52620  -0.52524  -0.52142
 Alpha  occ. eigenvalues --   -0.51614  -0.50649  -0.50574  -0.50394  -0.49735
 Alpha  occ. eigenvalues --   -0.49516  -0.49141  -0.48957  -0.48519  -0.48219
 Alpha  occ. eigenvalues --   -0.42114  -0.38839  -0.34431  -0.34317  -0.34019
 Alpha  occ. eigenvalues --   -0.33485
 Alpha virt. eigenvalues --    0.12615   0.12744   0.13021   0.13364   0.18077
 Alpha virt. eigenvalues --    0.18394   0.21521   0.22246   0.23073   0.23706
 Alpha virt. eigenvalues --    0.23994   0.24765   0.25854   0.26003   0.26747

 Mulliken charges:
               1
     1  C   -0.168619
     2  C   -0.158922
     3  C   -0.162946
     4  C   -0.162996
     5  C   -0.168634
     6  C   -0.168639
     7  C   -0.161192
     8  C   -0.158931
     9  C   -0.138940
    10  C   -0.139183
    11  C   -0.038038
    12  C    0.188670
    13  C    0.796942
    14  C   -0.246714
    15  C   -0.247895
    16  C   -0.079555
    17  C   -0.077798
    18  C    0.111370
    19  C   -0.319097
    20  C   -0.269801
    21  C   -0.318685
    22  C   -0.036212
    23  N   -0.777917
    24  N   -0.648119
    25  O   -0.680353
    26  H    0.170720
    27  H    0.176526
    28  H    0.172588
    29  H    0.172406
    30  H    0.179055
    31  H    0.179036
    32  H    0.175247
    33  H    0.175357
    34  H    0.185966
    35  H    0.185927
    36  H    0.168716
    37  H    0.175932
    38  H    0.177339
    39  H    0.167495
    40  H    0.197951
    41  H    0.198121
    42  H    0.195635
    43  H    0.201775
    44  H    0.173495
    45  H    0.121843
    46  H    0.122328
    47  H    0.115663
    48  H    0.163822
    49  H    0.166702
    50  H    0.161573
    51  H    0.159128
    52  H    0.195301
    53  H    0.195392
    54  H    0.401165
 Sum of Mulliken charges =   1.00000

 Dipole moment (field-independent basis, Debye):
    X=              1.2446    Y=            -11.1396    Z=              0.2277  Tot=             11.2112
 Quadrupole moment (field-independent basis, Debye-Ang):
   XX=            -99.2941   YY=           -125.6213   ZZ=           -131.7979
   XY=             -9.1728   XZ=             -3.8751   YZ=              5.5510

 ESP charges:
               1
     1  C   -0.177287
     2  C   -0.146008
     3  C   -0.100056
     4  C   -0.109575
     5  C   -0.148984
     6  C   -0.170814
     7  C   -0.298128
     8  C   -0.299887
     9  C   -0.286084
    10  C   -0.277236
    11  C    0.298390
    12  C    0.501818
    13  C    0.895342
    14  C   -0.025753
    15  C    0.008768
    16  C   -0.287346
    17  C   -0.376157
    18  C    0.400184
    19  C   -0.269314
    20  C   -0.403506
    21  C   -0.022243
    22  C   -0.025436
    23  N   -0.963079
    24  N    0.150482
    25  O   -0.677392
    26  H    0.150561
    27  H    0.157446
    28  H    0.145066
    29  H    0.148380
    30  H    0.163477
    31  H    0.170698
    32  H    0.183228
    33  H    0.188895
    34  H    0.198368
    35  H    0.199089
    36  H    0.076646
    37  H    0.070317
    38  H    0.041985
    39  H    0.081147
    40  H    0.167532
    41  H    0.146371
    42  H    0.166508
    43  H    0.190728
    44  H    0.044604
    45  H    0.066656
    46  H    0.065162
    47  H    0.078268
    48  H    0.141163
    49  H    0.138791
    50  H    0.042489
    51  H    0.040275
    52  H    0.116817
    53  H    0.136384
    54  H    0.292248
 Sum of ESP charges =   1.00000

 Normal termination of Gaussian 16 at Mon Feb  5 16:02:53 2024.
