 Gaussian 16, Revision A.03,
 Gaussian 16:  ES64L-G16RevA.03 25-Dec-2016

 --------------------------------
 # B3LYP/6-31G** opt=Modredundant
 --------------------------------

 --
 G9
 --
 Symbolic Z-matrix:
 Charge =  1 Multiplicity = 1

 SCF Done:  E(RB3LYP) =  -407.134217627     A.U. after   12 cycles
 SCF Done:  E(RB3LYP) =  -407.137439633     A.U. after   10 cycles
 SCF Done:  E(RB3LYP) =  -407.137742884     A.U. after    9 cycles
 SCF Done:  E(RB3LYP) =  -407.137764394     A.U. after    7 cycles
 Optimization completed.
    -- Stationary point found.

                         Standard orientation:
 ---------------------------------------------------------------------
 Center     Atomic      Atomic             Coordinates (Angstroms)
 Number     Number       Type             X           Y           Z
 ---------------------------------------------------------------------
      1          6           0       -1.732056    0.000256   -0.866664
      2          6           0       -0.752146    1.237073    1.124548
      3          6           0       -0.751974   -1.237741    1.123882
      4          6           0        0.483906    1.246520   -0.879906
      5          6           0        0.484013   -1.246065   -0.880457
      6          6           0       -0.985925    1.292593   -0.403617
      7          6           0       -0.985819   -1.292450   -0.404110
      8          6           0        0.160958   -0.000337    1.239507
      9          6           0        0.968410   -0.000016   -0.123954
     10          7           0        2.499854    0.000048    0.072915
     11          1           0       -2.746446    0.000101   -0.455771
     12          1           0       -1.817163    0.000448   -1.959363
     13          1           0       -0.228865    2.134969    1.473083
     14          1           0       -1.680602    1.146285    1.691894
     15          1           0       -1.680345   -1.147437    1.691480
     16          1           0       -0.228760   -2.135833    1.472097
     17          1           0        0.569553    1.157662   -1.967275
     18          1           0        1.025167    2.150844   -0.570624
     19          1           0        1.025024   -2.150049   -0.571406
     20          1           0        0.569515   -1.156359   -1.968029
     21          1           0       -1.506945    2.198869   -0.719798
     22          1           0       -1.506782   -2.198543   -0.720793
     23          1           0        0.762228   -0.000524    2.156177
     24          1           0        2.955093   -0.690364   -0.533349
     25          1           0        2.749916   -0.226281    1.041212
     26          1           0        2.904232    0.916875   -0.145318
 ---------------------------------------------------------------------

 The electronic state is 1-A.
 Alpha  occ. eigenvalues --  -14.64241 -10.41746 -10.34578 -10.34154 -10.34136
 Alpha  occ. eigenvalues --  -10.32908 -10.32907 -10.31468 -10.31452 -10.31277
 Alpha  occ. eigenvalues --   -1.18287  -1.03448  -0.92615  -0.89992  -0.88735
 Alpha  occ. eigenvalues --   -0.80933  -0.78714  -0.76175  -0.76034  -0.71856
 Alpha  occ. eigenvalues --   -0.71664  -0.68872  -0.66390  -0.60322  -0.60285
 Alpha  occ. eigenvalues --   -0.58993  -0.55497  -0.55141  -0.53436  -0.52478
 Alpha  occ. eigenvalues --   -0.50948  -0.50246  -0.48230  -0.47360  -0.45778
 Alpha  occ. eigenvalues --   -0.45482  -0.43591  -0.43375
 Alpha virt. eigenvalues --   -0.14627  -0.09403  -0.09149  -0.08108  -0.03638
 Alpha virt. eigenvalues --   -0.02049  -0.01432  -0.00765   0.00937   0.01127
 Alpha virt. eigenvalues --    0.02686   0.03274   0.04089   0.04207   0.04874

 Mulliken charges:
               1
     1  C   -0.184309
     2  C   -0.165858
     3  C   -0.164893
     4  C   -0.191587
     5  C   -0.194944
     6  C   -0.096648
     7  C   -0.097500
     8  C   -0.116718
     9  C    0.096795
    10  N   -0.567221
    11  H    0.134819
    12  H    0.123972
    13  H    0.110043
    14  H    0.133632
    15  H    0.133918
    16  H    0.109750
    17  H    0.134822
    18  H    0.113212
    19  H    0.116013
    20  H    0.134176
    21  H    0.129900
    22  H    0.130011
    23  H    0.101942
    24  H    0.360552
    25  H    0.358766
    26  H    0.357356
 Sum of Mulliken charges =   1.00000

 Dipole moment (field-independent basis, Debye):
    X=              7.5341    Y=             -0.0122    Z=              0.1230  Tot=              7.5351
 Quadrupole moment (field-independent basis, Debye-Ang):
   XX=            -30.2293   YY=            -54.4064   ZZ=            -55.2560
   XY=             -0.0352   XZ=              0.7542   YZ=              0.0011

 Normal termination of Gaussian 16 at Mon Feb  5 15:24:49 2024.
