 Gaussian 16, Revision A.03,
 Gaussian 16:  ES64L-G16RevA.03 25-Dec-2016

 ----------------------------------------------------------------------
 # HF/6-31G** SCRF=(Solvent=Water) POP=MK iop(6/50=1) geom=allcheck gue
 ss=read
 ----------------------------------------------------------------------

 Structure from the checkpoint file:  "G9.chk"
 --
 G9
 --
 Charge =  1 Multiplicity = 1

                         Standard orientation:
 ---------------------------------------------------------------------
 Center     Atomic      Atomic             Coordinates (Angstroms)
 Number     Number       Type             X           Y           Z
 ---------------------------------------------------------------------
      1          6           0       -1.732056    0.000256   -0.866664
      2          6           0       -0.752146    1.237073    1.124548
      3          6           0       -0.751974   -1.237741    1.123882
      4          6           0        0.483906    1.246520   -0.879906
      5          6           0        0.484013   -1.246065   -0.880457
      6          6           0       -0.985925    1.292593   -0.403617
      7          6           0       -0.985819   -1.292450   -0.404110
      8          6           0        0.160958   -0.000337    1.239507
      9          6           0        0.968410   -0.000016   -0.123954
     10          7           0        2.499854    0.000048    0.072915
     11          1           0       -2.746446    0.000101   -0.455771
     12          1           0       -1.817163    0.000448   -1.959363
     13          1           0       -0.228865    2.134969    1.473083
     14          1           0       -1.680602    1.146285    1.691894
     15          1           0       -1.680345   -1.147437    1.691480
     16          1           0       -0.228760   -2.135833    1.472097
     17          1           0        0.569553    1.157662   -1.967275
     18          1           0        1.025167    2.150844   -0.570624
     19          1           0        1.025024   -2.150049   -0.571406
     20          1           0        0.569515   -1.156359   -1.968029
     21          1           0       -1.506945    2.198869   -0.719798
     22          1           0       -1.506782   -2.198543   -0.720793
     23          1           0        0.762228   -0.000524    2.156177
     24          1           0        2.955093   -0.690364   -0.533349
     25          1           0        2.749916   -0.226281    1.041212
     26          1           0        2.904232    0.916875   -0.145318
 ---------------------------------------------------------------------

 SCF Done:  E(RHF) =  -404.484061322     A.U. after   11 cycles

 The electronic state is 1-A.
 Alpha  occ. eigenvalues --  -15.70511 -11.31535 -11.24836 -11.24127 -11.24107
 Alpha  occ. eigenvalues --  -11.23958 -11.23954 -11.22974 -11.22581 -11.22574
 Alpha  occ. eigenvalues --   -1.31573  -1.19084  -1.06431  -1.02122  -1.01629
 Alpha  occ. eigenvalues --   -0.91128  -0.87338  -0.81697  -0.78189  -0.76435
 Alpha  occ. eigenvalues --   -0.75224  -0.73852  -0.70534  -0.63373  -0.63342
 Alpha  occ. eigenvalues --   -0.62225  -0.57601  -0.57237  -0.55038  -0.54761
 Alpha  occ. eigenvalues --   -0.52032  -0.51004  -0.47552  -0.47458  -0.45590
 Alpha  occ. eigenvalues --   -0.45070  -0.43484  -0.43392
 Alpha virt. eigenvalues --    0.17480   0.20714   0.23009   0.23580   0.24759
 Alpha virt. eigenvalues --    0.26252   0.26570   0.29327   0.29726   0.30417
 Alpha virt. eigenvalues --    0.30754   0.31758   0.32051   0.33288   0.34629

 Mulliken charges:
               1
     1  C   -0.206668
     2  C   -0.201641
     3  C   -0.200801
     4  C   -0.210228
     5  C   -0.214775
     6  C   -0.165598
     7  C   -0.165988
     8  C   -0.159491
     9  C    0.077260
    10  N   -0.639828
    11  H    0.134401
    12  H    0.131657
    13  H    0.133245
    14  H    0.136971
    15  H    0.137149
    16  H    0.133258
    17  H    0.155395
    18  H    0.150200
    19  H    0.153316
    20  H    0.155771
    21  H    0.147150
    22  H    0.147184
    23  H    0.160455
    24  H    0.404414
    25  H    0.404282
    26  H    0.402913
 Sum of Mulliken charges =   1.00000

 Dipole moment (field-independent basis, Debye):
    X=              9.6653    Y=             -0.0107    Z=              0.2208  Tot=              9.6678
 Quadrupole moment (field-independent basis, Debye-Ang):
   XX=            -30.3825   YY=            -56.2337   ZZ=            -56.7498
   XY=             -0.0189   XZ=              0.9332   YZ=             -0.0009

 ESP charges:
               1
     1  C   -0.517512
     2  C   -0.450369
     3  C   -0.447834
     4  C   -0.482922
     5  C   -0.502857
     6  C    0.341674
     7  C    0.356609
     8  C    0.225251
     9  C    0.648685
    10  N   -0.878652
    11  H    0.134975
    12  H    0.128719
    13  H    0.094932
    14  H    0.142763
    15  H    0.139169
    16  H    0.095885
    17  H    0.143102
    18  H    0.129843
    19  H    0.136104
    20  H    0.144844
    21  H    0.024622
    22  H    0.020557
    23  H    0.026985
    24  H    0.463911
    25  H    0.426717
    26  H    0.454800
 Sum of ESP charges =   1.00000

 1\1\GINC-CPU189\SP\RHF\6-31G(d,p)\C9H16N1(1+)\FEBRERMA\05-Feb-2024\0\\
 # HF/6-31G** SCRF=(Solvent=Water) POP=MK iop(6/50=1) geom=allcheck gue
 ss=read\\G9\\1,1\C,0,9.7925877734,37.8604968466,28.8884357398\C,0,7.71
 80040046,38.8805959831,29.9421743837\C,0,8.2769354492,36.5182814428,30
 .423598366\C,0,9.8115492542,39.5564214492,30.7824575306\C,0,10.3743710
 757,37.1771064002,31.2672957334\C,0,9.1507030369,39.1746308559,29.4382
 491115\C,0,9.7343249217,36.7070427558,29.9410808061\C,0,8.0045251878,3
 7.8847673516,31.0842725511\C,0,9.4256433731,38.3310708815,31.624865923

 Normal termination of Gaussian 16 at Mon Feb  5 16:01:26 2024.
