 Gaussian 16, Revision A.03,
 Gaussian 16:  ES64L-G16RevA.03 25-Dec-2016

 --------------------------------
 # B3LYP/6-31G** opt=Modredundant
 --------------------------------

 --
 G8
 --
 Symbolic Z-matrix:
 Charge =  1 Multiplicity = 1

 SCF Done:  E(RB3LYP) =  -527.497197262     A.U. after   12 cycles
 SCF Done:  E(RB3LYP) =  -527.500598617     A.U. after   10 cycles
 SCF Done:  E(RB3LYP) =  -527.500721413     A.U. after    8 cycles
 SCF Done:  E(RB3LYP) =  -527.500737956     A.U. after    7 cycles
 Optimization completed.
    -- Stationary point found.

                         Standard orientation:
 ---------------------------------------------------------------------
 Center     Atomic      Atomic             Coordinates (Angstroms)
 Number     Number       Type             X           Y           Z
 ---------------------------------------------------------------------
      1          6           0       -2.492549    0.998434    0.343203
      2          6           0       -3.207641   -0.156571   -0.384909
      3          6           0       -1.295097    1.586013   -0.424524
      4          6           0       -2.340441   -1.375949   -0.770308
      5          6           0       -0.370315    2.437392    0.473042
      6          6           0       -1.663707   -2.139322    0.387411
      7          6           0        1.036057    2.663997   -0.120917
      8          6           0       -0.316638   -1.597574    0.914758
      9          6           0        1.824323    1.387514   -0.482619
     10          6           0        0.824829   -1.665752   -0.117745
     11          6           0        2.103513    0.435532    0.723021
     12          6           0        2.140724   -1.058943    0.390912
     13          7           0        3.234425   -1.309521   -0.683932
     14          1           0       -3.222247    1.800658    0.503747
     15          1           0       -2.187414    0.663240    1.342686
     16          1           0       -4.048234   -0.499943    0.231067
     17          1           0       -3.672046    0.236071   -1.298935
     18          1           0       -0.714823    0.796415   -0.906383
     19          1           0       -1.685967    2.235500   -1.217833
     20          1           0       -2.982124   -2.086780   -1.303371
     21          1           0       -1.612616   -1.066651   -1.532005
     22          1           0       -0.843142    3.404912    0.664598
     23          1           0       -0.257378    1.918115    1.435216
     24          1           0       -2.351596   -2.261527    1.232087
     25          1           0       -1.496200   -3.171822    0.047572
     26          1           0        0.895017    3.210704   -1.063594
     27          1           0        1.636111    3.329295    0.509954
     28          1           0       -0.456742   -0.563281    1.235331
     29          1           0       -0.022492   -2.166521    1.805586
     30          1           0        1.265828    0.828357   -1.239994
     31          1           0        2.781243    1.688385   -0.927163
     32          1           0        0.983798   -2.714761   -0.404561
     33          1           0        0.507886   -1.139301   -1.025647
     34          1           0        3.053211    0.741377    1.182383
     35          1           0        1.350209    0.619085    1.490406
     36          1           0        2.496923   -1.617356    1.262149
     37          1           0        2.835570   -1.264424   -1.627346
     38          1           0        3.665926   -2.231646   -0.571162
     39          1           0        3.981978   -0.610091   -0.625222
 ---------------------------------------------------------------------

 The electronic state is 1-A.
 Alpha  occ. eigenvalues --  -14.64223 -10.42071 -10.34332 -10.34088 -10.32333
 Alpha  occ. eigenvalues --  -10.31160 -10.29603 -10.28984 -10.28446 -10.27878
 Alpha  occ. eigenvalues --  -10.27783 -10.27124 -10.26875  -1.18229  -0.97196
 Alpha  occ. eigenvalues --   -0.92302  -0.91029  -0.86627  -0.86371  -0.80552
 Alpha  occ. eigenvalues --   -0.80331  -0.76998  -0.75578  -0.74566  -0.73505
 Alpha  occ. eigenvalues --   -0.69306  -0.67637  -0.64948  -0.64787  -0.62951
 Alpha  occ. eigenvalues --   -0.59470  -0.58013  -0.57272  -0.55357  -0.54500
 Alpha  occ. eigenvalues --   -0.53444  -0.52452  -0.51427  -0.51259  -0.49879
 Alpha  occ. eigenvalues --   -0.48709  -0.48495  -0.47948  -0.46554  -0.45543
 Alpha  occ. eigenvalues --   -0.44645  -0.44050  -0.43050  -0.42530  -0.40669
 Alpha  occ. eigenvalues --   -0.40403  -0.40147
 Alpha virt. eigenvalues --   -0.14934  -0.09183  -0.09008  -0.07085  -0.04138
 Alpha virt. eigenvalues --   -0.03728  -0.01912  -0.01262  -0.00584   0.01157
 Alpha virt. eigenvalues --    0.01657   0.02408   0.03213   0.04063   0.04528

 Mulliken charges:
               1
     1  C   -0.190123
     2  C   -0.185194
     3  C   -0.175346
     4  C   -0.190428
     5  C   -0.189542
     6  C   -0.190444
     7  C   -0.191638
     8  C   -0.190465
     9  C   -0.213530
    10  C   -0.191773
    11  C   -0.209734
    12  C   -0.022287
    13  N   -0.546425
    14  H    0.116124
    15  H    0.092547
    16  H    0.109626
    17  H    0.106735
    18  H    0.066215
    19  H    0.116690
    20  H    0.117986
    21  H    0.080648
    22  H    0.127622
    23  H    0.087901
    24  H    0.122012
    25  H    0.102499
    26  H    0.119586
    27  H    0.116842
    28  H    0.118787
    29  H    0.115108
    30  H    0.097020
    31  H    0.101069
    32  H    0.118038
    33  H    0.118526
    34  H    0.124419
    35  H    0.161128
    36  H    0.166445
    37  H    0.359936
    38  H    0.364092
    39  H    0.359326
 Sum of Mulliken charges =   1.00000

 Dipole moment (field-independent basis, Debye):
    X=             11.0686    Y=             -4.4293    Z=             -1.9239  Tot=             12.0762
 Quadrupole moment (field-independent basis, Debye-Ang):
   XX=            -35.2636   YY=            -67.4671   ZZ=            -77.9244
   XY=            -15.3080   XZ=             -7.6170   YZ=              2.8102

 Normal termination of Gaussian 16 at Mon Feb  5 15:27:03 2024.
