 Gaussian 16, Revision A.03,
 Gaussian 16:  ES64L-G16RevA.03 25-Dec-2016

 ----------------------------------------------------------------------
 # HF/6-31G** SCRF=(Solvent=Water) POP=MK iop(6/50=1) geom=allcheck gue
 ss=read
 ----------------------------------------------------------------------

 Structure from the checkpoint file:  "G8.chk"
 --
 G8
 --
 Charge =  1 Multiplicity = 1

                         Standard orientation:
 ---------------------------------------------------------------------
 Center     Atomic      Atomic             Coordinates (Angstroms)
 Number     Number       Type             X           Y           Z
 ---------------------------------------------------------------------
      1          6           0       -2.492549    0.998434    0.343203
      2          6           0       -3.207641   -0.156571   -0.384909
      3          6           0       -1.295097    1.586013   -0.424524
      4          6           0       -2.340441   -1.375949   -0.770308
      5          6           0       -0.370315    2.437392    0.473042
      6          6           0       -1.663707   -2.139322    0.387411
      7          6           0        1.036057    2.663997   -0.120917
      8          6           0       -0.316638   -1.597574    0.914758
      9          6           0        1.824323    1.387514   -0.482619
     10          6           0        0.824829   -1.665752   -0.117745
     11          6           0        2.103513    0.435532    0.723021
     12          6           0        2.140724   -1.058943    0.390912
     13          7           0        3.234425   -1.309521   -0.683932
     14          1           0       -3.222247    1.800658    0.503747
     15          1           0       -2.187414    0.663240    1.342686
     16          1           0       -4.048234   -0.499943    0.231067
     17          1           0       -3.672046    0.236071   -1.298935
     18          1           0       -0.714823    0.796415   -0.906383
     19          1           0       -1.685967    2.235500   -1.217833
     20          1           0       -2.982124   -2.086780   -1.303371
     21          1           0       -1.612616   -1.066651   -1.532005
     22          1           0       -0.843142    3.404912    0.664598
     23          1           0       -0.257378    1.918115    1.435216
     24          1           0       -2.351596   -2.261527    1.232087
     25          1           0       -1.496200   -3.171822    0.047572
     26          1           0        0.895017    3.210704   -1.063594
     27          1           0        1.636111    3.329295    0.509954
     28          1           0       -0.456742   -0.563281    1.235331
     29          1           0       -0.022492   -2.166521    1.805586
     30          1           0        1.265828    0.828357   -1.239994
     31          1           0        2.781243    1.688385   -0.927163
     32          1           0        0.983798   -2.714761   -0.404561
     33          1           0        0.507886   -1.139301   -1.025647
     34          1           0        3.053211    0.741377    1.182383
     35          1           0        1.350209    0.619085    1.490406
     36          1           0        2.496923   -1.617356    1.262149
     37          1           0        2.835570   -1.264424   -1.627346
     38          1           0        3.665926   -2.231646   -0.571162
     39          1           0        3.981978   -0.610091   -0.625222
 ---------------------------------------------------------------------

 SCF Done:  E(RHF) =  -523.915841044     A.U. after   10 cycles

 The electronic state is 1-A.
 Alpha  occ. eigenvalues --  -15.70614 -11.31782 -11.24761 -11.24527 -11.23489
 Alpha  occ. eigenvalues --  -11.23215 -11.22542 -11.22459 -11.22114 -11.22019
 Alpha  occ. eigenvalues --  -11.21806 -11.21756 -11.21703  -1.31554  -1.11572
 Alpha  occ. eigenvalues --   -1.08252  -1.08120  -1.01362  -1.01245  -0.92862
 Alpha  occ. eigenvalues --   -0.92481  -0.85916  -0.84054  -0.79854  -0.77483
 Alpha  occ. eigenvalues --   -0.76839  -0.75887  -0.74929  -0.67439  -0.66612
 Alpha  occ. eigenvalues --   -0.64338  -0.62455  -0.61865  -0.60922  -0.58640
 Alpha  occ. eigenvalues --   -0.58103  -0.56510  -0.54570  -0.54026  -0.53174
 Alpha  occ. eigenvalues --   -0.52422  -0.51205  -0.50950  -0.48493  -0.48126
 Alpha  occ. eigenvalues --   -0.47104  -0.46545  -0.46067  -0.45247  -0.43973
 Alpha  occ. eigenvalues --   -0.43706  -0.43266
 Alpha virt. eigenvalues --    0.16793   0.21116   0.21480   0.22460   0.23212
 Alpha virt. eigenvalues --    0.24045   0.25013   0.26123   0.26540   0.28127
 Alpha virt. eigenvalues --    0.28956   0.29461   0.30044   0.31302   0.31572

 Mulliken charges:
               1
     1  C   -0.223316
     2  C   -0.210550
     3  C   -0.211593
     4  C   -0.227014
     5  C   -0.221645
     6  C   -0.225172
     7  C   -0.218559
     8  C   -0.220618
     9  C   -0.246431
    10  C   -0.231150
    11  C   -0.252494
    12  C    0.001544
    13  N   -0.643125
    14  H    0.115824
    15  H    0.108715
    16  H    0.110540
    17  H    0.109047
    18  H    0.099774
    19  H    0.118495
    20  H    0.120080
    21  H    0.110232
    22  H    0.124705
    23  H    0.102570
    24  H    0.123456
    25  H    0.115950
    26  H    0.117303
    27  H    0.123388
    28  H    0.119088
    29  H    0.132224
    30  H    0.119087
    31  H    0.136639
    32  H    0.154918
    33  H    0.132448
    34  H    0.155540
    35  H    0.159782
    36  H    0.205904
    37  H    0.399879
    38  H    0.410418
    39  H    0.404116
 Sum of Mulliken charges =   1.00000

 Dipole moment (field-independent basis, Debye):
    X=             13.6905    Y=             -5.5809    Z=             -2.3747  Tot=             14.9739
 Quadrupole moment (field-independent basis, Debye-Ang):
   XX=            -36.0960   YY=            -71.3975   ZZ=            -79.4348
   XY=            -17.5799   XZ=             -8.4115   YZ=              3.0631

 ESP charges:
               1
     1  C   -0.185266
     2  C   -0.008393
     3  C    0.069978
     4  C   -0.098798
     5  C   -0.151612
     6  C   -0.058605
     7  C   -0.009778
     8  C   -0.039704
     9  C    0.129387
    10  C   -0.316821
    11  C   -0.407281
    12  C    0.362978
    13  N   -0.851253
    14  H    0.053403
    15  H    0.058787
    16  H    0.027381
    17  H    0.015952
    18  H    0.009048
    19  H    0.034577
    20  H    0.040535
    21  H    0.031974
    22  H    0.055986
    23  H    0.038809
    24  H    0.047547
    25  H    0.035113
    26  H   -0.007300
    27  H    0.032457
    28  H    0.052400
    29  H    0.042710
    30  H   -0.015017
    31  H    0.007747
    32  H    0.129366
    33  H    0.151294
    34  H    0.128541
    35  H    0.126542
    36  H    0.093403
    37  H    0.434204
    38  H    0.466452
    39  H    0.473257
 Sum of ESP charges =   1.00000

 Normal termination of Gaussian 16 at Mon Feb  5 16:01:43 2024.
