 Gaussian 16, Revision A.03,
 Gaussian 16:  ES64L-G16RevA.03 25-Dec-2016

 --------------------------------
 # B3LYP/6-31G** opt=Modredundant
 --------------------------------

 --
 G3
 --
 Symbolic Z-matrix:
 Charge =  1 Multiplicity = 1

 SCF Done:  E(RB3LYP) =  -1036.88528277     A.U. after   14 cycles
 SCF Done:  E(RB3LYP) =  -1036.89465722     A.U. after   12 cycles
 SCF Done:  E(RB3LYP) =  -1036.89529373     A.U. after   11 cycles
 SCF Done:  E(RB3LYP) =  -1036.89534236     A.U. after    9 cycles
 SCF Done:  E(RB3LYP) =  -1036.89534905     A.U. after    8 cycles
 Optimization completed.
    -- Stationary point found.

                         Standard orientation:
 ---------------------------------------------------------------------
 Center     Atomic      Atomic             Coordinates (Angstroms)
 Number     Number       Type             X           Y           Z
 ---------------------------------------------------------------------
      1          6           0        4.128207    1.184277   -0.829183
      2          6           0        4.499873   -0.124038   -0.626004
      3          6           0        0.330021    2.539300    0.373638
      4          6           0        2.354236   -0.598200    0.391862
      5          6           0        1.301706    3.373862   -0.256627
      6          6           0        1.947957    0.746982    0.192916
      7          6           0        0.675615    1.223239    0.589889
      8          6           0        2.848136    1.665983   -0.430800
      9          6           0        3.596486   -1.036322   -0.003057
     10          6           0       -4.878075    1.572452   -0.794870
     11          6           0       -5.077622    0.254563   -0.841188
     12          6           0       -2.676764   -2.554787    0.334513
     13          6           0       -2.892668   -0.276534    1.307337
     14          6           0       -1.419675   -2.101465   -0.433825
     15          6           0       -2.773631   -0.424152   -1.673633
     16          6           0       -4.042202   -0.861328   -0.895753
     17          6           0       -3.649850   -1.375214    0.516078
     18          6           0       -1.704582    0.256431    0.478904
     19          6           0        5.246026   -2.790272   -0.208451
     20          6           0       -0.364759    0.315800    1.268669
     21          7           0        2.512636    2.961714   -0.645501
     22          7           0       -1.563208   -0.628284   -0.766212
     23          8           0       -0.620076    0.823460    2.569742
     24          8           0        3.960470   -2.324847    0.197429
     25          1           0        4.833823    1.856614   -1.305497
     26          1           0        5.480150   -0.454425   -0.941032
     27          1           0       -0.638011    2.935366    0.666750
     28          1           0        1.690230   -1.312778    0.861933
     29          1           0        1.088752    4.421763   -0.455226
     30          1           0       -5.718072    2.257808   -0.758553
     31          1           0       -3.896056    2.039944   -0.789929
     32          1           0       -6.112919   -0.082614   -0.840709
     33          1           0       -3.165457   -3.371703   -0.205095
     34          1           0       -2.386489   -2.961587    1.307052
     35          1           0       -3.562901    0.549608    1.553235
     36          1           0       -2.553531   -0.680622    2.264172
     37          1           0       -0.507054   -2.232091    0.145001
     38          1           0       -1.304616   -2.637396   -1.377673
     39          1           0       -2.611887   -1.039397   -2.561288
     40          1           0       -2.772686    0.621716   -1.977048
     41          1           0       -4.511051   -1.683162   -1.446737
     42          1           0       -4.529268   -1.702220    1.074020
     43          1           0       -1.925210    1.258982    0.109039
     44          1           0        5.284481   -3.843646    0.062813
     45          1           0        6.047772   -2.229438    0.284861
     46          1           0        5.384294   -2.674963   -1.290425
     47          1           0        0.016639   -0.695217    1.386684
     48          1           0       -0.729554   -0.332247   -1.284609
     49          1           0       -0.961120    1.725336    2.500398
 ---------------------------------------------------------------------

 The electronic state is 1-A.
 Alpha  occ. eigenvalues --  -19.27838 -19.27572 -14.60878 -14.42946 -10.39485
 Alpha  occ. eigenvalues --  -10.39398 -10.39380 -10.38637 -10.35573 -10.34770
 Alpha  occ. eigenvalues --  -10.34274 -10.33552 -10.32985 -10.32695 -10.32610
 Alpha  occ. eigenvalues --  -10.32489 -10.32415 -10.31800 -10.31459 -10.31306
 Alpha  occ. eigenvalues --  -10.30698 -10.29371 -10.29264 -10.29196  -1.16753
 Alpha  occ. eigenvalues --   -1.16261  -1.15359  -1.04015  -0.97601  -0.95341
 Alpha  occ. eigenvalues --   -0.94289  -0.93795  -0.91778  -0.87781  -0.85722
 Alpha  occ. eigenvalues --   -0.85280  -0.83239  -0.80816  -0.79603  -0.79306
 Alpha  occ. eigenvalues --   -0.77779  -0.74176  -0.73071  -0.72431  -0.70026
 Alpha  occ. eigenvalues --   -0.69120  -0.67583  -0.66571  -0.65343  -0.63723
 Alpha  occ. eigenvalues --   -0.63380  -0.62587  -0.60484  -0.59879  -0.58729
 Alpha  occ. eigenvalues --   -0.58526  -0.57888  -0.57161  -0.56195  -0.55982
 Alpha  occ. eigenvalues --   -0.55853  -0.55254  -0.55012  -0.54613  -0.54374
 Alpha  occ. eigenvalues --   -0.53443  -0.52631  -0.51984  -0.51113  -0.50718
 Alpha  occ. eigenvalues --   -0.49440  -0.49411  -0.48115  -0.47676  -0.46556
 Alpha  occ. eigenvalues --   -0.46256  -0.45970  -0.45627  -0.45232  -0.42003
 Alpha  occ. eigenvalues --   -0.41471  -0.40340  -0.39944  -0.38467  -0.35088
 Alpha  occ. eigenvalues --   -0.34689  -0.31419
 Alpha virt. eigenvalues --   -0.15942  -0.11854  -0.11597  -0.10648  -0.08609
 Alpha virt. eigenvalues --   -0.06902  -0.06611  -0.05770  -0.04501  -0.03063
 Alpha virt. eigenvalues --   -0.02955  -0.01772  -0.01210  -0.00856  -0.00124

 Mulliken charges:
               1
     1  C   -0.086213
     2  C   -0.132608
     3  C   -0.175375
     4  C   -0.204847
     5  C    0.087769
     6  C    0.102534
     7  C    0.079492
     8  C    0.233420
     9  C    0.372977
    10  C   -0.238281
    11  C   -0.047225
    12  C   -0.208323
    13  C   -0.195817
    14  C   -0.083396
    15  C   -0.079716
    16  C   -0.115594
    17  C   -0.096919
    18  C    0.018318
    19  C   -0.092761
    20  C    0.112085
    21  N   -0.492053
    22  N   -0.473937
    23  O   -0.510250
    24  O   -0.521760
    25  H    0.130442
    26  H    0.117271
    27  H    0.085770
    28  H    0.080321
    29  H    0.122067
    30  H    0.144592
    31  H    0.085724
    32  H    0.127878
    33  H    0.143952
    34  H    0.148820
    35  H    0.142917
    36  H    0.160426
    37  H    0.169416
    38  H    0.167381
    39  H    0.164360
    40  H    0.167359
    41  H    0.138884
    42  H    0.143639
    43  H    0.135627
    44  H    0.147128
    45  H    0.133900
    46  H    0.125105
    47  H    0.109704
    48  H    0.335859
    49  H    0.319940
 Sum of Mulliken charges =   1.00000

 Dipole moment (field-independent basis, Debye):
    X=             -6.6049    Y=             -4.0721    Z=             -3.2149  Tot=              8.3989
 Quadrupole moment (field-independent basis, Debye-Ang):
   XX=            -75.4837   YY=           -118.6311   ZZ=           -136.8960
   XY=             -9.1136   XZ=             -0.5076   YZ=              6.1889

 Normal termination of Gaussian 16 at Mon Feb  5 15:34:38 2024.
