 Gaussian 16, Revision A.03,
 Gaussian 16:  ES64L-G16RevA.03 25-Dec-2016

 ----------------------------------------------------------------------
 # HF/6-31G** SCRF=(Solvent=Water) POP=MK iop(6/50=1) geom=allcheck gue
 ss=read
 ----------------------------------------------------------------------

 Structure from the checkpoint file:  "G3.chk"
 --
 G3
 --
 Charge =  1 Multiplicity = 1

                         Standard orientation:
 ---------------------------------------------------------------------
 Center     Atomic      Atomic             Coordinates (Angstroms)
 Number     Number       Type             X           Y           Z
 ---------------------------------------------------------------------
      1          6           0        4.128207    1.184277   -0.829183
      2          6           0        4.499873   -0.124038   -0.626004
      3          6           0        0.330021    2.539300    0.373638
      4          6           0        2.354236   -0.598200    0.391862
      5          6           0        1.301706    3.373862   -0.256627
      6          6           0        1.947957    0.746982    0.192916
      7          6           0        0.675615    1.223239    0.589889
      8          6           0        2.848136    1.665983   -0.430800
      9          6           0        3.596486   -1.036322   -0.003057
     10          6           0       -4.878075    1.572452   -0.794870
     11          6           0       -5.077622    0.254563   -0.841188
     12          6           0       -2.676764   -2.554787    0.334513
     13          6           0       -2.892668   -0.276534    1.307337
     14          6           0       -1.419675   -2.101465   -0.433825
     15          6           0       -2.773631   -0.424152   -1.673633
     16          6           0       -4.042202   -0.861328   -0.895753
     17          6           0       -3.649850   -1.375214    0.516078
     18          6           0       -1.704582    0.256431    0.478904
     19          6           0        5.246026   -2.790272   -0.208451
     20          6           0       -0.364759    0.315800    1.268669
     21          7           0        2.512636    2.961714   -0.645501
     22          7           0       -1.563208   -0.628284   -0.766212
     23          8           0       -0.620076    0.823460    2.569742
     24          8           0        3.960470   -2.324847    0.197429
     25          1           0        4.833823    1.856614   -1.305497
     26          1           0        5.480150   -0.454425   -0.941032
     27          1           0       -0.638011    2.935366    0.666750
     28          1           0        1.690230   -1.312778    0.861933
     29          1           0        1.088752    4.421763   -0.455226
     30          1           0       -5.718072    2.257808   -0.758553
     31          1           0       -3.896056    2.039944   -0.789929
     32          1           0       -6.112919   -0.082614   -0.840709
     33          1           0       -3.165457   -3.371703   -0.205095
     34          1           0       -2.386489   -2.961587    1.307052
     35          1           0       -3.562901    0.549608    1.553235
     36          1           0       -2.553531   -0.680622    2.264172
     37          1           0       -0.507054   -2.232091    0.145001
     38          1           0       -1.304616   -2.637396   -1.377673
     39          1           0       -2.611887   -1.039397   -2.561288
     40          1           0       -2.772686    0.621716   -1.977048
     41          1           0       -4.511051   -1.683162   -1.446737
     42          1           0       -4.529268   -1.702220    1.074020
     43          1           0       -1.925210    1.258982    0.109039
     44          1           0        5.284481   -3.843646    0.062813
     45          1           0        6.047772   -2.229438    0.284861
     46          1           0        5.384294   -2.674963   -1.290425
     47          1           0        0.016639   -0.695217    1.386684
     48          1           0       -0.729554   -0.332247   -1.284609
     49          1           0       -0.961120    1.725336    2.500398
 ---------------------------------------------------------------------

 SCF Done:  E(RHF) =  -1030.40822638     A.U. after   14 cycles

 The electronic state is 1-A.
 Alpha  occ. eigenvalues --  -20.59932 -20.59299 -15.71129 -15.58445 -11.32848
 Alpha  occ. eigenvalues --  -11.31955 -11.31888 -11.30738 -11.30642 -11.29339
 Alpha  occ. eigenvalues --  -11.28909 -11.28706 -11.28077 -11.27002 -11.26435
 Alpha  occ. eigenvalues --  -11.26219 -11.25935 -11.25480 -11.25254 -11.24813
 Alpha  occ. eigenvalues --  -11.24740 -11.24738 -11.24519 -11.23525  -1.41812
 Alpha  occ. eigenvalues --   -1.39436  -1.34437  -1.26886  -1.15292  -1.13400
 Alpha  occ. eigenvalues --   -1.12362  -1.08584  -1.07327  -1.03208  -1.02907
 Alpha  occ. eigenvalues --   -1.02030  -0.96883  -0.94839  -0.91208  -0.89802
 Alpha  occ. eigenvalues --   -0.88970  -0.86925  -0.85838  -0.81736  -0.79703
 Alpha  occ. eigenvalues --   -0.77074  -0.74231  -0.73581  -0.72974  -0.71896
 Alpha  occ. eigenvalues --   -0.71683  -0.71024  -0.67151  -0.66201  -0.65582
 Alpha  occ. eigenvalues --   -0.64959  -0.63875  -0.62846  -0.62154  -0.61941
 Alpha  occ. eigenvalues --   -0.61364  -0.60878  -0.59799  -0.59119  -0.58825
 Alpha  occ. eigenvalues --   -0.58222  -0.57939  -0.56952  -0.56374  -0.56183
 Alpha  occ. eigenvalues --   -0.55893  -0.53200  -0.52118  -0.51832  -0.51602
 Alpha  occ. eigenvalues --   -0.50042  -0.49019  -0.48091  -0.47938  -0.46671
 Alpha  occ. eigenvalues --   -0.46190  -0.44548  -0.42426  -0.41907  -0.37122
 Alpha  occ. eigenvalues --   -0.33386  -0.30252
 Alpha virt. eigenvalues --    0.06145   0.11180   0.14869   0.16005   0.18116
 Alpha virt. eigenvalues --    0.19905   0.20720   0.21661   0.23840   0.24319
 Alpha virt. eigenvalues --    0.24615   0.25661   0.26234   0.26764   0.27580

 Mulliken charges:
               1
     1  C   -0.134455
     2  C   -0.215468
     3  C   -0.230701
     4  C   -0.216006
     5  C    0.118087
     6  C   -0.031303
     7  C    0.027973
     8  C    0.250596
     9  C    0.419705
    10  C   -0.301900
    11  C   -0.104318
    12  C   -0.247328
    13  C   -0.226007
    14  C   -0.060528
    15  C   -0.051855
    16  C   -0.178013
    17  C   -0.158885
    18  C    0.011554
    19  C   -0.049078
    20  C    0.213822
    21  N   -0.625361
    22  N   -0.665273
    23  O   -0.663731
    24  O   -0.693091
    25  H    0.191478
    26  H    0.198497
    27  H    0.197339
    28  H    0.179602
    29  H    0.181504
    30  H    0.153751
    31  H    0.131194
    32  H    0.160707
    33  H    0.166338
    34  H    0.167499
    35  H    0.169100
    36  H    0.176306
    37  H    0.188715
    38  H    0.208042
    39  H    0.208355
    40  H    0.202554
    41  H    0.184015
    42  H    0.178162
    43  H    0.199736
    44  H    0.158636
    45  H    0.136186
    46  H    0.134865
    47  H    0.165092
    48  H    0.400886
    49  H    0.373002
 Sum of Mulliken charges =   1.00000

 Dipole moment (field-independent basis, Debye):
    X=             -8.4977    Y=             -4.3650    Z=             -4.1417  Tot=             10.4123
 Quadrupole moment (field-independent basis, Debye-Ang):
   XX=            -87.6435   YY=           -121.7837   ZZ=           -141.2542
   XY=            -10.7918   XZ=             -0.4236   YZ=              8.1080

 ESP charges:
               1
     1  C   -0.393426
     2  C   -0.278516
     3  C   -0.601668
     4  C   -0.602768
     5  C    0.472519
     6  C   -0.075932
     7  C    0.139506
     8  C    0.671935
     9  C    0.564120
    10  C   -0.390209
    11  C   -0.214491
    12  C   -0.156230
    13  C   -0.172234
    14  C    0.048642
    15  C   -0.079641
    16  C    0.114332
    17  C   -0.024377
    18  C   -0.143253
    19  C   -0.023232
    20  C    0.485193
    21  N   -0.791636
    22  N   -0.115267
    23  O   -0.775552
    24  O   -0.419180
    25  H    0.220861
    26  H    0.212085
    27  H    0.238687
    28  H    0.209106
    29  H    0.072460
    30  H    0.184074
    31  H    0.177720
    32  H    0.155610
    33  H    0.072959
    34  H    0.097137
    35  H    0.095119
    36  H    0.107364
    37  H    0.052509
    38  H    0.111417
    39  H    0.132882
    40  H    0.117533
    41  H    0.075647
    42  H    0.095626
    43  H    0.168640
    44  H    0.113075
    45  H    0.076892
    46  H    0.073854
    47  H    0.129801
    48  H    0.288075
    49  H    0.482231
 Sum of ESP charges =   1.00000

 Normal termination of Gaussian 16 at Mon Feb  5 16:02:52 2024.
