 Gaussian 16, Revision A.03,
 Gaussian 16:  ES64L-G16RevA.03 25-Dec-2016

 --------------------------------
 # B3LYP/6-31G** opt=Modredundant
 --------------------------------

 --
 G1
 --
 Symbolic Z-matrix:
 Charge =  1 Multiplicity = 1

 SCF Done:  E(RB3LYP) =  -445.246575742     A.U. after   13 cycles
 SCF Done:  E(RB3LYP) =  -445.249472481     A.U. after   11 cycles
 SCF Done:  E(RB3LYP) =  -445.249679528     A.U. after   10 cycles
 SCF Done:  E(RB3LYP) =  -445.249688350     A.U. after    8 cycles
 Optimization completed.
    -- Stationary point found.

                         Standard orientation:
 ---------------------------------------------------------------------
 Center     Atomic      Atomic             Coordinates (Angstroms)
 Number     Number       Type             X           Y           Z
 ---------------------------------------------------------------------
      1          6           0       -3.504792   -0.151059    0.226698
      2          6           0       -2.743250   -1.283237    0.524766
      3          6           0       -2.902161    0.958520   -0.370162
      4          6           0       -1.380048   -1.308095    0.227449
      5          6           0       -1.538971    0.938218   -0.669366
      6          6           0       -0.775972   -0.196923   -0.370308
      7          6           0        1.323588    1.772401    0.755140
      8          6           0        3.608764   -1.210229   -0.241921
      9          6           0        0.709192   -0.221178   -0.695101
     10          6           0        1.598929    0.300094    0.452822
     11          7           0        3.081352    0.170248    0.055223
     12          1           0       -4.565038   -0.134292    0.457450
     13          1           0       -3.212448   -2.145629    0.987609
     14          1           0       -3.494709    1.837707   -0.602625
     15          1           0       -0.796076   -2.194093    0.463766
     16          1           0       -1.079237    1.806310   -1.133458
     17          1           0        1.442435    2.389591   -0.142582
     18          1           0        0.306458    1.886241    1.128019
     19          1           0        2.013563    2.169039    1.509698
     20          1           0        3.026591   -1.653664   -1.045454
     21          1           0        4.653304   -1.122886   -0.541551
     22          1           0        3.520641   -1.816247    0.659775
     23          1           0        0.875602    0.397710   -1.588236
     24          1           0        1.017125   -1.231663   -0.980971
     25          1           0        1.474803   -0.296822    1.361194
     26          1           0        3.642316    0.570169    0.813831
     27          1           0        3.233537    0.755720   -0.773124
 ---------------------------------------------------------------------

 The electronic state is 1-A.
 Alpha  occ. eigenvalues --  -14.63881 -10.41873 -10.41614 -10.34752 -10.34174
 Alpha  occ. eigenvalues --  -10.31773 -10.30127 -10.30125 -10.29480 -10.29451
 Alpha  occ. eigenvalues --  -10.29223  -1.18360  -0.98125  -0.95195  -0.90159
 Alpha  occ. eigenvalues --   -0.87118  -0.85242  -0.83122  -0.79011  -0.76170
 Alpha  occ. eigenvalues --   -0.71441  -0.69278  -0.68266  -0.67152  -0.62349
 Alpha  occ. eigenvalues --   -0.61743  -0.59444  -0.58706  -0.57491  -0.56424
 Alpha  occ. eigenvalues --   -0.54820  -0.54135  -0.52796  -0.52173  -0.51931
 Alpha  occ. eigenvalues --   -0.50420  -0.46633  -0.45125  -0.44882  -0.35772
 Alpha  occ. eigenvalues --   -0.35600
 Alpha virt. eigenvalues --   -0.13931  -0.11873  -0.11027  -0.08658  -0.06545
 Alpha virt. eigenvalues --   -0.05856  -0.04374  -0.02607  -0.02286  -0.01135
 Alpha virt. eigenvalues --    0.00226   0.00567   0.01063   0.02073   0.03058

 Mulliken charges:
               1
     1  C   -0.075973
     2  C   -0.082344
     3  C   -0.084800
     4  C   -0.114970
     5  C   -0.119177
     6  C    0.103177
     7  C   -0.346460
     8  C   -0.228533
     9  C   -0.268882
    10  C    0.003164
    11  N   -0.484359
    12  H    0.120728
    13  H    0.117568
    14  H    0.117767
    15  H    0.087471
    16  H    0.091373
    17  H    0.135104
    18  H    0.190588
    19  H    0.131000
    20  H    0.198327
    21  H    0.189734
    22  H    0.195217
    23  H    0.126123
    24  H    0.129346
    25  H    0.170451
    26  H    0.351236
    27  H    0.347126
 Sum of Mulliken charges =   1.00000

 Dipole moment (field-independent basis, Debye):
    X=             10.8560    Y=              0.3983    Z=              0.4547  Tot=             10.8728
 Quadrupole moment (field-independent basis, Debye-Ang):
   XX=            -12.0163   YY=            -55.9547   ZZ=            -63.4383
   XY=             -0.9634   XZ=             -1.2951   YZ=             -1.6399

 Normal termination of Gaussian 16 at Mon Feb  5 15:24:51 2024.
