 Gaussian 16, Revision A.03,
 Gaussian 16:  ES64L-G16RevA.03 25-Dec-2016

 ----------------------------------------------------------------------
 # HF/6-31G** SCRF=(Solvent=Water) POP=MK iop(6/50=1) geom=allcheck gue
 ss=read
 ----------------------------------------------------------------------

 Structure from the checkpoint file:  "G1.chk"
 --
 G1
 --
 Charge =  1 Multiplicity = 1

                         Standard orientation:
 ---------------------------------------------------------------------
 Center     Atomic      Atomic             Coordinates (Angstroms)
 Number     Number       Type             X           Y           Z
 ---------------------------------------------------------------------
      1          6           0       -3.504792   -0.151059    0.226698
      2          6           0       -2.743250   -1.283237    0.524766
      3          6           0       -2.902161    0.958520   -0.370162
      4          6           0       -1.380048   -1.308095    0.227449
      5          6           0       -1.538971    0.938218   -0.669366
      6          6           0       -0.775972   -0.196923   -0.370308
      7          6           0        1.323588    1.772401    0.755140
      8          6           0        3.608764   -1.210229   -0.241921
      9          6           0        0.709192   -0.221178   -0.695101
     10          6           0        1.598929    0.300094    0.452822
     11          7           0        3.081352    0.170248    0.055223
     12          1           0       -4.565038   -0.134292    0.457450
     13          1           0       -3.212448   -2.145629    0.987609
     14          1           0       -3.494709    1.837707   -0.602625
     15          1           0       -0.796076   -2.194093    0.463766
     16          1           0       -1.079237    1.806310   -1.133458
     17          1           0        1.442435    2.389591   -0.142582
     18          1           0        0.306458    1.886241    1.128019
     19          1           0        2.013563    2.169039    1.509698
     20          1           0        3.026591   -1.653664   -1.045454
     21          1           0        4.653304   -1.122886   -0.541551
     22          1           0        3.520641   -1.816247    0.659775
     23          1           0        0.875602    0.397710   -1.588236
     24          1           0        1.017125   -1.231663   -0.980971
     25          1           0        1.474803   -0.296822    1.361194
     26          1           0        3.642316    0.570169    0.813831
     27          1           0        3.233537    0.755720   -0.773124
 ---------------------------------------------------------------------

 SCF Done:  E(RHF) =  -442.352359104     A.U. after   13 cycles

 The electronic state is 1-A.
 Alpha  occ. eigenvalues --  -15.70928 -11.31822 -11.30039 -11.25580 -11.25405
 Alpha  occ. eigenvalues --  -11.24197 -11.24181 -11.24158 -11.24089 -11.24060
 Alpha  occ. eigenvalues --  -11.23907  -1.32737  -1.16147  -1.09586  -1.03118
 Alpha  occ. eigenvalues --   -1.01795  -0.97128  -0.94872  -0.85975  -0.83000
 Alpha  occ. eigenvalues --   -0.80960  -0.77576  -0.70091  -0.69358  -0.68072
 Alpha  occ. eigenvalues --   -0.65278  -0.63538  -0.61925  -0.59197  -0.58900
 Alpha  occ. eigenvalues --   -0.58203  -0.57149  -0.56310  -0.54628  -0.52645
 Alpha  occ. eigenvalues --   -0.51436  -0.49366  -0.49026  -0.48847  -0.34033
 Alpha  occ. eigenvalues --   -0.33463
 Alpha virt. eigenvalues --    0.12986   0.13243   0.17626   0.22373   0.23049
 Alpha virt. eigenvalues --    0.23816   0.25636   0.26350   0.28051   0.28199
 Alpha virt. eigenvalues --    0.29615   0.30179   0.30697   0.31502   0.32092

 Mulliken charges:
               1
     1  C   -0.168608
     2  C   -0.163284
     3  C   -0.163869
     4  C   -0.158968
     5  C   -0.163382
     6  C   -0.033103
     7  C   -0.359546
     8  C   -0.184209
     9  C   -0.250687
    10  C    0.013981
    11  N   -0.622564
    12  H    0.170980
    13  H    0.172476
    14  H    0.172867
    15  H    0.175226
    16  H    0.177100
    17  H    0.146675
    18  H    0.169447
    19  H    0.150036
    20  H    0.190610
    21  H    0.198735
    22  H    0.195955
    23  H    0.161812
    24  H    0.164658
    25  H    0.205216
    26  H    0.404862
    27  H    0.397586
 Sum of Mulliken charges =   1.00000

 Dipole moment (field-independent basis, Debye):
    X=             13.4086    Y=              0.4706    Z=              0.3260  Tot=             13.4208
 Quadrupole moment (field-independent basis, Debye-Ang):
   XX=            -14.2710   YY=            -56.9812   ZZ=            -64.8818
   XY=             -0.7352   XZ=             -1.3144   YZ=             -2.4842

 ESP charges:
               1
     1  C   -0.187965
     2  C   -0.117643
     3  C   -0.134732
     4  C   -0.250161
     5  C   -0.241298
     6  C    0.281698
     7  C   -0.650332
     8  C   -0.174107
     9  C   -0.609627
    10  C    0.406473
    11  N   -0.280242
    12  H    0.159221
    13  H    0.150510
    14  H    0.155679
    15  H    0.165946
    16  H    0.167123
    17  H    0.185167
    18  H    0.211490
    19  H    0.164656
    20  H    0.136544
    21  H    0.138455
    22  H    0.135610
    23  H    0.202598
    24  H    0.192203
    25  H    0.090841
    26  H    0.349640
    27  H    0.352253
 Sum of ESP charges =   1.00000

 Normal termination of Gaussian 16 at Mon Feb  5 16:01:29 2024.
