 Gaussian 16, Revision A.03,
 Gaussian 16:  ES64L-G16RevA.03 25-Dec-2016

 --------------------------------
 # B3LYP/6-31G** opt=Modredundant
 --------------------------------

 --
 G6
 --
 Symbolic Z-matrix:
 Charge =  1 Multiplicity = 1

 SCF Done:  E(RB3LYP) =  -718.046104676     A.U. after   13 cycles
 SCF Done:  E(RB3LYP) =  -718.052629505     A.U. after   11 cycles
 SCF Done:  E(RB3LYP) =  -718.053141271     A.U. after   10 cycles
 SCF Done:  E(RB3LYP) =  -718.053202485     A.U. after    9 cycles
 Optimization completed.
    -- Stationary point found.

                         Standard orientation:
 ---------------------------------------------------------------------
 Center     Atomic      Atomic             Coordinates (Angstroms)
 Number     Number       Type             X           Y           Z
 ---------------------------------------------------------------------
      1          6           0        1.582681    3.476647    0.014862
      2          6           0        1.343026    2.820655    1.223134
      3          6           0        1.435443    2.791182   -1.193580
      4          6           0        0.955685    1.477853    1.221904
      5          6           0        1.049064    1.449878   -1.205678
      6          6           0        0.807916    0.789951    0.009923
      7          6           0        2.802689   -2.490280   -0.006468
      8          6           0        2.328758   -1.814342    1.280914
      9          6           0        2.374994   -1.711395   -1.250327
     10          6           0       -4.004938    0.221218   -0.027790
     11          6           0       -3.363882   -0.348895    1.247692
     12          6           0       -3.343067   -0.355848   -1.289378
     13          6           0        0.818627   -1.519805    1.248924
     14          6           0        0.856057   -1.465159   -1.253151
     15          6           0       -1.845736   -0.149666    1.247646
     16          6           0       -1.825093   -0.156957   -1.265395
     17          6           0        0.380870   -0.691124    0.010666
     18          7           0       -1.250420   -0.761282   -0.002332
     19          1           0        1.882288    4.519648    0.014083
     20          1           0        1.456047    3.352605    2.162296
     21          1           0        1.621972    3.305897   -2.130968
     22          1           0        0.771806    0.976269    2.163608
     23          1           0        0.938943    0.931632   -2.147670
     24          1           0        3.894021   -2.577609    0.009497
     25          1           0        2.403994   -3.512616   -0.055290
     26          1           0        2.568560   -2.446968    2.140801
     27          1           0        2.878498   -0.876463    1.423700
     28          1           0        2.901070   -0.750567   -1.278617
     29          1           0        2.667883   -2.261725   -2.149453
     30          1           0       -5.075396   -0.001732   -0.036137
     31          1           0       -3.904589    1.313971   -0.029981
     32          1           0       -3.798051    0.137996    2.125907
     33          1           0       -3.597189   -1.418865    1.333200
     34          1           0       -3.575113   -1.426258   -1.372765
     35          1           0       -3.762489    0.126167   -2.177393
     36          1           0        0.261635   -2.465692    1.289631
     37          1           0        0.561989   -0.968831    2.155643
     38          1           0        0.607496   -0.884715   -2.140991
     39          1           0        0.326005   -2.423267   -1.338140
     40          1           0       -1.576939    0.906291    1.257383
     41          1           0       -1.395267   -0.651937    2.100685
     42          1           0       -1.360744   -0.664032   -2.107800
     43          1           0       -1.555836    0.899343   -1.276674
     44          1           0       -1.506226   -1.753037   -0.001623
 ---------------------------------------------------------------------

 The electronic state is 1-A.
 Alpha  occ. eigenvalues --  -14.58969 -10.39830 -10.37736 -10.37728 -10.33235
 Alpha  occ. eigenvalues --  -10.32805 -10.32799 -10.32535 -10.32397 -10.31792
 Alpha  occ. eigenvalues --  -10.31768 -10.31594 -10.31119 -10.31088 -10.30944
 Alpha  occ. eigenvalues --  -10.29953 -10.29915 -10.28858  -1.13802  -0.99097
 Alpha  occ. eigenvalues --   -0.96124  -0.93559  -0.92058  -0.88987  -0.87938
 Alpha  occ. eigenvalues --   -0.86439  -0.85014  -0.80932  -0.78698  -0.76483
 Alpha  occ. eigenvalues --   -0.74234  -0.72916  -0.72245  -0.71059  -0.67459
 Alpha  occ. eigenvalues --   -0.66090  -0.64361  -0.63722  -0.62498  -0.60062
 Alpha  occ. eigenvalues --   -0.58885  -0.58594  -0.57934  -0.57475  -0.56648
 Alpha  occ. eigenvalues --   -0.55867  -0.55017  -0.54443  -0.54007  -0.53860
 Alpha  occ. eigenvalues --   -0.52323  -0.50886  -0.50724  -0.50555  -0.49660
 Alpha  occ. eigenvalues --   -0.48682  -0.47270  -0.46794  -0.46515  -0.46410
 Alpha  occ. eigenvalues --   -0.46356  -0.45956  -0.43715  -0.43549  -0.42277
 Alpha  occ. eigenvalues --   -0.37492  -0.37431
 Alpha virt. eigenvalues --   -0.14339  -0.12818  -0.09131  -0.05924  -0.05309
 Alpha virt. eigenvalues --   -0.02751  -0.02445  -0.02297  -0.00958  -0.00813
 Alpha virt. eigenvalues --    0.00121   0.00410   0.01080   0.01490   0.02108

 Mulliken charges:
               1
     1  C   -0.069487
     2  C   -0.093390
     3  C   -0.095640
     4  C   -0.121126
     5  C   -0.116863
     6  C    0.114782
     7  C   -0.184587
     8  C   -0.194052
     9  C   -0.193654
    10  C   -0.194558
    11  C   -0.219663
    12  C   -0.219791
    13  C   -0.204258
    14  C   -0.206767
    15  C   -0.075357
    16  C   -0.075190
    17  C    0.066627
    18  N   -0.461899
    19  H    0.128066
    20  H    0.125136
    21  H    0.124522
    22  H    0.103474
    23  H    0.106821
    24  H    0.126519
    25  H    0.106267
    26  H    0.129259
    27  H    0.123022
    28  H    0.122961
    29  H    0.128806
    30  H    0.142318
    31  H    0.123827
    32  H    0.151885
    33  H    0.122067
    34  H    0.122067
    35  H    0.151915
    36  H    0.104311
    37  H    0.115590
    38  H    0.114463
    39  H    0.103417
    40  H    0.170155
    41  H    0.156104
    42  H    0.157372
    43  H    0.170089
    44  H    0.314436
 Sum of Mulliken charges =   1.00000

 Dipole moment (field-independent basis, Debye):
    X=             -3.5811    Y=             -1.1824    Z=             -0.0153  Tot=              3.7713
 Quadrupole moment (field-independent basis, Debye-Ang):
   XX=            -83.3019   YY=            -88.6073   ZZ=            -94.8155
   XY=              3.9448   XZ=             -0.2161   YZ=              0.0532

 Normal termination of Gaussian 16 at Mon Feb  5 15:30:10 2024.
