 Gaussian 16, Revision A.03,
 Gaussian 16:  ES64L-G16RevA.03 25-Dec-2016

 ----------------------------------------------------------------------
 # HF/6-31G** SCRF=(Solvent=Water) POP=MK iop(6/50=1) geom=allcheck gue
 ss=read
 ----------------------------------------------------------------------

 Structure from the checkpoint file:  "G6.chk"
 --
 G6
 --
 Charge =  1 Multiplicity = 1

                         Standard orientation:
 ---------------------------------------------------------------------
 Center     Atomic      Atomic             Coordinates (Angstroms)
 Number     Number       Type             X           Y           Z
 ---------------------------------------------------------------------
      1          6           0        1.582681    3.476647    0.014862
      2          6           0        1.343026    2.820655    1.223134
      3          6           0        1.435443    2.791182   -1.193580
      4          6           0        0.955685    1.477853    1.221904
      5          6           0        1.049064    1.449878   -1.205678
      6          6           0        0.807916    0.789951    0.009923
      7          6           0        2.802689   -2.490280   -0.006468
      8          6           0        2.328758   -1.814342    1.280914
      9          6           0        2.374994   -1.711395   -1.250327
     10          6           0       -4.004938    0.221218   -0.027790
     11          6           0       -3.363882   -0.348895    1.247692
     12          6           0       -3.343067   -0.355848   -1.289378
     13          6           0        0.818627   -1.519805    1.248924
     14          6           0        0.856057   -1.465159   -1.253151
     15          6           0       -1.845736   -0.149666    1.247646
     16          6           0       -1.825093   -0.156957   -1.265395
     17          6           0        0.380870   -0.691124    0.010666
     18          7           0       -1.250420   -0.761282   -0.002332
     19          1           0        1.882288    4.519648    0.014083
     20          1           0        1.456047    3.352605    2.162296
     21          1           0        1.621972    3.305897   -2.130968
     22          1           0        0.771806    0.976269    2.163608
     23          1           0        0.938943    0.931632   -2.147670
     24          1           0        3.894021   -2.577609    0.009497
     25          1           0        2.403994   -3.512616   -0.055290
     26          1           0        2.568560   -2.446968    2.140801
     27          1           0        2.878498   -0.876463    1.423700
     28          1           0        2.901070   -0.750567   -1.278617
     29          1           0        2.667883   -2.261725   -2.149453
     30          1           0       -5.075396   -0.001732   -0.036137
     31          1           0       -3.904589    1.313971   -0.029981
     32          1           0       -3.798051    0.137996    2.125907
     33          1           0       -3.597189   -1.418865    1.333200
     34          1           0       -3.575113   -1.426258   -1.372765
     35          1           0       -3.762489    0.126167   -2.177393
     36          1           0        0.261635   -2.465692    1.289631
     37          1           0        0.561989   -0.968831    2.155643
     38          1           0        0.607496   -0.884715   -2.140991
     39          1           0        0.326005   -2.423267   -1.338140
     40          1           0       -1.576939    0.906291    1.257383
     41          1           0       -1.395267   -0.651937    2.100685
     42          1           0       -1.360744   -0.664032   -2.107800
     43          1           0       -1.555836    0.899343   -1.276674
     44          1           0       -1.506226   -1.753037   -0.001623
 ---------------------------------------------------------------------

 SCF Done:  E(RHF) =  -713.264600804     A.U. after   13 cycles

 The electronic state is 1-A.
 Alpha  occ. eigenvalues --  -15.69807 -11.33223 -11.29453 -11.29444 -11.26684
 Alpha  occ. eigenvalues --  -11.25437 -11.25424 -11.25022 -11.24866 -11.24849
 Alpha  occ. eigenvalues --  -11.24817 -11.24727 -11.24367 -11.24362 -11.23491
 Alpha  occ. eigenvalues --  -11.23124 -11.23080 -11.22321  -1.32093  -1.17406
 Alpha  occ. eigenvalues --   -1.13432  -1.09060  -1.05942  -1.04997  -1.03292
 Alpha  occ. eigenvalues --   -1.01842  -0.99630  -0.91901  -0.89310  -0.87388
 Alpha  occ. eigenvalues --   -0.85319  -0.83194  -0.81493  -0.81058  -0.76134
 Alpha  occ. eigenvalues --   -0.71678  -0.71231  -0.69461  -0.66367  -0.65069
 Alpha  occ. eigenvalues --   -0.64834  -0.64373  -0.63759  -0.61511  -0.60722
 Alpha  occ. eigenvalues --   -0.60563  -0.60251  -0.59184  -0.57189  -0.56701
 Alpha  occ. eigenvalues --   -0.56064  -0.54349  -0.54284  -0.52877  -0.52442
 Alpha  occ. eigenvalues --   -0.51374  -0.50479  -0.50068  -0.49557  -0.48224
 Alpha  occ. eigenvalues --   -0.47574  -0.47313  -0.46387  -0.45418  -0.44040
 Alpha  occ. eigenvalues --   -0.34895  -0.34753
 Alpha virt. eigenvalues --    0.10857   0.12242   0.18786   0.21149   0.21708
 Alpha virt. eigenvalues --    0.23981   0.24804   0.25193   0.25882   0.26536
 Alpha virt. eigenvalues --    0.26664   0.27608   0.28496   0.28700   0.29522

 Mulliken charges:
               1
     1  C   -0.152291
     2  C   -0.168278
     3  C   -0.169811
     4  C   -0.151916
     5  C   -0.149381
     6  C   -0.005104
     7  C   -0.221941
     8  C   -0.223651
     9  C   -0.223796
    10  C   -0.233935
    11  C   -0.248999
    12  C   -0.249361
    13  C   -0.229450
    14  C   -0.237004
    15  C   -0.056402
    16  C   -0.055372
    17  C    0.088944
    18  N   -0.656044
    19  H    0.181964
    20  H    0.183132
    21  H    0.181644
    22  H    0.190284
    23  H    0.193365
    24  H    0.127856
    25  H    0.120101
    26  H    0.140398
    27  H    0.129251
    28  H    0.130168
    29  H    0.140503
    30  H    0.145171
    31  H    0.134469
    32  H    0.161015
    33  H    0.144724
    34  H    0.144719
    35  H    0.160950
    36  H    0.152317
    37  H    0.140253
    38  H    0.139481
    39  H    0.152941
    40  H    0.190746
    41  H    0.191537
    42  H    0.192346
    43  H    0.190315
    44  H    0.384141
 Sum of Mulliken charges =   1.00000

 Dipole moment (field-independent basis, Debye):
    X=             -4.6513    Y=             -2.3262    Z=             -0.0206  Tot=              5.2006
 Quadrupole moment (field-independent basis, Debye-Ang):
   XX=            -91.9679   YY=            -92.5404   ZZ=            -95.4107
   XY=              5.2481   XZ=             -0.3546   YZ=              0.1103

 ESP charges:
               1
     1  C   -0.165287
     2  C   -0.121612
     3  C   -0.119903
     4  C   -0.342141
     5  C   -0.329742
     6  C    0.486716
     7  C   -0.048473
     8  C   -0.035620
     9  C   -0.037956
    10  C   -0.057075
    11  C   -0.072017
    12  C   -0.055437
    13  C   -0.206174
    14  C   -0.224381
    15  C    0.004274
    16  C    0.022163
    17  C   -0.035345
    18  N   -0.302295
    19  H    0.165086
    20  H    0.163463
    21  H    0.159982
    22  H    0.195436
    23  H    0.192074
    24  H    0.033262
    25  H    0.038869
    26  H    0.050357
    27  H    0.032947
    28  H    0.033768
    29  H    0.050855
    30  H    0.047178
    31  H    0.041376
    32  H    0.067258
    33  H    0.055992
    34  H    0.051936
    35  H    0.061996
    36  H    0.125953
    37  H    0.091081
    38  H    0.100338
    39  H    0.129970
    40  H    0.109786
    41  H    0.079194
    42  H    0.070457
    43  H    0.098748
    44  H    0.392944
 Sum of ESP charges =   1.00000

 Normal termination of Gaussian 16 at Mon Feb  5 16:02:20 2024.
