 Gaussian 16, Revision A.03,
 Gaussian 16:  ES64L-G16RevA.03 25-Dec-2016

 --------------------------------
 # B3LYP/6-31G** opt=Modredundant
 --------------------------------

 --
 G5
 --
 Symbolic Z-matrix:
 Charge =  1 Multiplicity = 1

 SCF Done:  E(RB3LYP) =  -447.647119574     A.U. after   12 cycles
 SCF Done:  E(RB3LYP) =  -447.652824098     A.U. after   10 cycles
 SCF Done:  E(RB3LYP) =  -447.653116966     A.U. after    8 cycles
 SCF Done:  E(RB3LYP) =  -447.653136855     A.U. after    7 cycles
 Optimization completed.
    -- Stationary point found.

                         Standard orientation:
 ---------------------------------------------------------------------
 Center     Atomic      Atomic             Coordinates (Angstroms)
 Number     Number       Type             X           Y           Z
 ---------------------------------------------------------------------
      1          6           0        0.053608   -1.620055   -1.159966
      2          6           0       -0.356493   -0.181395   -1.613973
      3          6           0       -0.816972   -1.200557    1.117381
      4          6           0        0.485125   -1.410143    0.301388
      5          6           0       -1.226894    0.252546    0.728035
      6          6           0       -0.153362    0.658199   -0.329356
      7          6           0        1.150613    0.011203    0.284316
      8          6           0       -0.104221    2.163329   -0.607218
      9          6           0        1.562579    0.528316    1.678089
     10          6           0        2.415113    0.100770   -0.586524
     11          7           0       -2.672957    0.295720    0.195463
     12          1           0       -0.776265   -2.327017   -1.253976
     13          1           0        0.876036   -1.999512   -1.769728
     14          1           0        0.285746    0.160622   -2.425489
     15          1           0       -1.383216   -0.150752   -2.007281
     16          1           0       -1.578981   -1.953442    0.884105
     17          1           0       -0.614563   -1.265386    2.189065
     18          1           0        1.108308   -2.220293    0.687371
     19          1           0       -1.218205    0.913650    1.593419
     20          1           0        0.039903    2.739760    0.313323
     21          1           0       -1.027925    2.532571   -1.072021
     22          1           0        0.719102    2.406400   -1.282999
     23          1           0        2.019116    1.519350    1.604869
     24          1           0        2.285975   -0.154292    2.132727
     25          1           0        0.735789    0.625663    2.388984
     26          1           0        2.833640    1.110750   -0.559943
     27          1           0        2.247660   -0.136311   -1.639517
     28          1           0        3.168150   -0.600546   -0.216372
     29          1           0       -3.155608   -0.592428    0.360923
     30          1           0       -2.683687    0.476884   -0.815290
     31          1           0       -3.224854    1.031014    0.646555
 ---------------------------------------------------------------------

 The electronic state is 1-A.
 Alpha  occ. eigenvalues --  -14.64167 -10.41411 -10.35166 -10.34169 -10.33226
 Alpha  occ. eigenvalues --  -10.32722 -10.32087 -10.31247 -10.31024 -10.29659
 Alpha  occ. eigenvalues --  -10.29139  -1.18250  -1.02423  -0.90856  -0.90027
 Alpha  occ. eigenvalues --   -0.89031  -0.81839  -0.80056  -0.78286  -0.77726
 Alpha  occ. eigenvalues --   -0.76009  -0.74969  -0.68987  -0.65508  -0.64927
 Alpha  occ. eigenvalues --   -0.62020  -0.60659  -0.57344  -0.56141  -0.55074
 Alpha  occ. eigenvalues --   -0.54673  -0.53131  -0.52466  -0.51715  -0.49881
 Alpha  occ. eigenvalues --   -0.49599  -0.48543  -0.47543  -0.45857  -0.45490
 Alpha  occ. eigenvalues --   -0.44787  -0.43898  -0.42358
 Alpha virt. eigenvalues --   -0.14794  -0.10232  -0.09228  -0.07004  -0.05006
 Alpha virt. eigenvalues --   -0.02975  -0.02120  -0.01174   0.00432   0.01333
 Alpha virt. eigenvalues --    0.02200   0.02827   0.03297   0.04293   0.04622

 Mulliken charges:
               1
     1  C   -0.193082
     2  C   -0.216328
     3  C   -0.218478
     4  C   -0.061059
     5  C   -0.003429
     6  C    0.023260
     7  C    0.036918
     8  C   -0.334682
     9  C   -0.330265
    10  C   -0.327192
    11  N   -0.554470
    12  H    0.101311
    13  H    0.139530
    14  H    0.152247
    15  H    0.066842
    16  H    0.110589
    17  H    0.153526
    18  H    0.113516
    19  H    0.164258
    20  H    0.125257
    21  H    0.091395
    22  H    0.148595
    23  H    0.131862
    24  H    0.139102
    25  H    0.090695
    26  H    0.127657
    27  H    0.112400
    28  H    0.136575
    29  H    0.357805
    30  H    0.351713
    31  H    0.363933
 Sum of Mulliken charges =   1.00000

 Dipole moment (field-independent basis, Debye):
    X=             -8.0452    Y=              0.8545    Z=              0.7809  Tot=              8.1281
 Quadrupole moment (field-independent basis, Debye-Ang):
   XX=            -34.5537   YY=            -62.6135   ZZ=            -62.7497
   XY=             -2.9394   XZ=             -2.4611   YZ=              0.0548

 Normal termination of Gaussian 16 at Mon Feb  5 15:25:52 2024.
