 Gaussian 16, Revision A.03,
 Gaussian 16:  ES64L-G16RevA.03 25-Dec-2016

 ----------------------------------------------------------------------
 # HF/6-31G** SCRF=(Solvent=Water) POP=MK iop(6/50=1) geom=allcheck gue
 ss=read
 ----------------------------------------------------------------------

 Structure from the checkpoint file:  "G5.chk"
 --
 G5
 --
 Charge =  1 Multiplicity = 1

                         Standard orientation:
 ---------------------------------------------------------------------
 Center     Atomic      Atomic             Coordinates (Angstroms)
 Number     Number       Type             X           Y           Z
 ---------------------------------------------------------------------
      1          6           0        0.053608   -1.620055   -1.159966
      2          6           0       -0.356493   -0.181395   -1.613973
      3          6           0       -0.816972   -1.200557    1.117381
      4          6           0        0.485125   -1.410143    0.301388
      5          6           0       -1.226894    0.252546    0.728035
      6          6           0       -0.153362    0.658199   -0.329356
      7          6           0        1.150613    0.011203    0.284316
      8          6           0       -0.104221    2.163329   -0.607218
      9          6           0        1.562579    0.528316    1.678089
     10          6           0        2.415113    0.100770   -0.586524
     11          7           0       -2.672957    0.295720    0.195463
     12          1           0       -0.776265   -2.327017   -1.253976
     13          1           0        0.876036   -1.999512   -1.769728
     14          1           0        0.285746    0.160622   -2.425489
     15          1           0       -1.383216   -0.150752   -2.007281
     16          1           0       -1.578981   -1.953442    0.884105
     17          1           0       -0.614563   -1.265386    2.189065
     18          1           0        1.108308   -2.220293    0.687371
     19          1           0       -1.218205    0.913650    1.593419
     20          1           0        0.039903    2.739760    0.313323
     21          1           0       -1.027925    2.532571   -1.072021
     22          1           0        0.719102    2.406400   -1.282999
     23          1           0        2.019116    1.519350    1.604869
     24          1           0        2.285975   -0.154292    2.132727
     25          1           0        0.735789    0.625663    2.388984
     26          1           0        2.833640    1.110750   -0.559943
     27          1           0        2.247660   -0.136311   -1.639517
     28          1           0        3.168150   -0.600546   -0.216372
     29          1           0       -3.155608   -0.592428    0.360923
     30          1           0       -2.683687    0.476884   -0.815290
     31          1           0       -3.224854    1.031014    0.646555
 ---------------------------------------------------------------------

 SCF Done:  E(RHF) =  -444.671571826     A.U. after   11 cycles

 The electronic state is 1-A.
 Alpha  occ. eigenvalues --  -15.70686 -11.31228 -11.26042 -11.24963 -11.24405
 Alpha  occ. eigenvalues --  -11.23497 -11.23481 -11.22478 -11.22453 -11.22002
 Alpha  occ. eigenvalues --  -11.21849  -1.31748  -1.18641  -1.03960  -1.03597
 Alpha  occ. eigenvalues --   -1.02433  -0.92838  -0.92523  -0.87504  -0.85654
 Alpha  occ. eigenvalues --   -0.78113  -0.77412  -0.74529  -0.70928  -0.67654
 Alpha  occ. eigenvalues --   -0.66050  -0.64768  -0.61110  -0.58181  -0.57707
 Alpha  occ. eigenvalues --   -0.57050  -0.55659  -0.55163  -0.53752  -0.53191
 Alpha  occ. eigenvalues --   -0.51880  -0.49643  -0.48728  -0.46659  -0.46061
 Alpha  occ. eigenvalues --   -0.45194  -0.43890  -0.42082
 Alpha virt. eigenvalues --    0.16738   0.20138   0.22164   0.22837   0.24226
 Alpha virt. eigenvalues --    0.24920   0.26403   0.27755   0.28272   0.28939
 Alpha virt. eigenvalues --    0.30684   0.31011   0.31377   0.32409   0.33022

 Mulliken charges:
               1
     1  C   -0.227859
     2  C   -0.234452
     3  C   -0.240927
     4  C   -0.123070
     5  C    0.030096
     6  C   -0.092923
     7  C   -0.064236
     8  C   -0.312732
     9  C   -0.324243
    10  C   -0.320019
    11  N   -0.646688
    12  H    0.132031
    13  H    0.137724
    14  H    0.155619
    15  H    0.116362
    16  H    0.150976
    17  H    0.163234
    18  H    0.141393
    19  H    0.210739
    20  H    0.127149
    21  H    0.120994
    22  H    0.135116
    23  H    0.127857
    24  H    0.130560
    25  H    0.115574
    26  H    0.125604
    27  H    0.123176
    28  H    0.129127
    29  H    0.405445
    30  H    0.398413
    31  H    0.409960
 Sum of Mulliken charges =   1.00000

 Dipole moment (field-independent basis, Debye):
    X=            -10.4629    Y=              1.0459    Z=              0.9894  Tot=             10.5614
 Quadrupole moment (field-independent basis, Debye-Ang):
   XX=            -34.6596   YY=            -64.9024   ZZ=            -64.7082
   XY=             -3.2642   XZ=             -2.6246   YZ=              0.1128

 ESP charges:
               1
     1  C   -0.295126
     2  C    0.000714
     3  C   -0.397218
     4  C    0.127771
     5  C    0.526333
     6  C   -0.047376
     7  C    0.438093
     8  C   -0.469571
     9  C   -0.502111
    10  C   -0.599514
    11  N   -0.859540
    12  H    0.095050
    13  H    0.074950
    14  H    0.056172
    15  H    0.017886
    16  H    0.134751
    17  H    0.089403
    18  H    0.023361
    19  H    0.034314
    20  H    0.119277
    21  H    0.118265
    22  H    0.140984
    23  H    0.130970
    24  H    0.123187
    25  H    0.106491
    26  H    0.154292
    27  H    0.165793
    28  H    0.139315
    29  H    0.448342
    30  H    0.452168
    31  H    0.452575
 Sum of ESP charges =   1.00000

 Normal termination of Gaussian 16 at Mon Feb  5 16:01:33 2024.
