 Gaussian 16, Revision A.03,
 Gaussian 16:  ES64L-G16RevA.03 25-Dec-2016

 --------------------------------
 # B3LYP/6-31G** opt=Modredundant
 --------------------------------

 --
 G4
 --
 Symbolic Z-matrix:
 Charge =  1 Multiplicity = 1

 SCF Done:  E(RB3LYP) =  -940.054975807     A.U. after   15 cycles
 SCF Done:  E(RB3LYP) =  -940.056908033     A.U. after   11 cycles
 SCF Done:  E(RB3LYP) =  -940.056955810     A.U. after    9 cycles
 SCF Done:  E(RB3LYP) =  -940.056958673     A.U. after    8 cycles
 Optimization completed.
    -- Stationary point found.

                         Standard orientation:
 ---------------------------------------------------------------------
 Center     Atomic      Atomic             Coordinates (Angstroms)
 Number     Number       Type             X           Y           Z
 ---------------------------------------------------------------------
      1          6           0        0.560173   -2.497287   -1.286130
      2          6           0        1.864800   -2.676426   -0.794753
      3          6           0       -0.214306   -1.395389   -0.864220
      4          6           0        0.365372   -0.544215    0.050667
      5          6           0        1.671636   -0.672763    0.485255
      6          6           0        2.444175   -1.752263    0.094468
      7          6           0        1.551148    2.319732   -0.121834
      8          6           0       -1.582521   -1.042336   -1.430883
      9          6           0        0.511618    3.014890   -0.982497
     10          6           0       -0.503721    2.000513   -1.515446
     11          6           0       -1.062676    0.243625    1.929660
     12          6           0       -2.250437   -0.683521    1.625442
     13          6           0        1.035787    1.408889    1.010415
     14          6           0       -1.238302    1.315182   -0.342780
     15          6           0       -2.247679    0.216277   -0.793140
     16          6           0       -0.271910    0.662455    0.665499
     17          6           0       -4.276162   -0.996903    0.179682
     18          7           0       -3.066324   -0.146500    0.462400
     19          8           0        2.730351    2.529796   -0.281651
     20          8           0        2.068605    0.399411    1.265982
     21          8           0        3.721195   -1.905146    0.521267
     22          1           0        0.161319   -3.204838   -2.007442
     23          1           0        2.442485   -3.530780   -1.135967
     24          1           0       -1.436930   -0.824436   -2.495618
     25          1           0       -2.240551   -1.916215   -1.385259
     26          1           0        0.023862    3.794144   -0.379247
     27          1           0        1.016532    3.501675   -1.818886
     28          1           0       -1.232217    2.515754   -2.152535
     29          1           0        0.007781    1.268702   -2.149138
     30          1           0       -1.438678    1.148449    2.429555
     31          1           0       -0.413427   -0.255485    2.654586
     32          1           0       -1.929949   -1.695391    1.371287
     33          1           0       -2.916585   -0.740026    2.489338
     34          1           0        0.925040    2.032635    1.905493
     35          1           0       -1.797103    2.115412    0.169864
     36          1           0       -2.973043    0.640943   -1.492379
     37          1           0       -3.959428   -1.974507   -0.178114
     38          1           0       -4.847306   -1.107469    1.101756
     39          1           0       -4.881290   -0.503964   -0.581953
     40          1           0       -3.454569    0.744285    0.790379
     41          1           0        4.105151   -2.698636    0.126274
 ---------------------------------------------------------------------

 The electronic state is 1-A.
 Alpha  occ. eigenvalues --  -19.28690 -19.27419 -19.24373 -14.62417 -10.41316
 Alpha  occ. eigenvalues --  -10.40372 -10.40363 -10.37952 -10.37014 -10.35850
 Alpha  occ. eigenvalues --  -10.35660 -10.34952 -10.34846 -10.34732 -10.34546
 Alpha  occ. eigenvalues --  -10.32350 -10.31554 -10.30587 -10.30459 -10.30278
 Alpha  occ. eigenvalues --  -10.30128  -1.17987  -1.17498  -1.15722  -1.14084
 Alpha  occ. eigenvalues --   -1.00986  -0.96294  -0.95426  -0.92195  -0.89967
 Alpha  occ. eigenvalues --   -0.88395  -0.86205  -0.85280  -0.82900  -0.80110
 Alpha  occ. eigenvalues --   -0.77433  -0.75285  -0.74972  -0.72415  -0.71678
 Alpha  occ. eigenvalues --   -0.68086  -0.66736  -0.66515  -0.65447  -0.62871
 Alpha  occ. eigenvalues --   -0.61734  -0.61051  -0.60743  -0.59713  -0.58845
 Alpha  occ. eigenvalues --   -0.58598  -0.57867  -0.57479  -0.56577  -0.55510
 Alpha  occ. eigenvalues --   -0.54904  -0.54467  -0.53322  -0.52970  -0.52710
 Alpha  occ. eigenvalues --   -0.51863  -0.51330  -0.50875  -0.49674  -0.48804
 Alpha  occ. eigenvalues --   -0.47594  -0.46467  -0.46270  -0.45474  -0.45228
 Alpha  occ. eigenvalues --   -0.44708  -0.44133  -0.42197  -0.35123  -0.34256
 Alpha  occ. eigenvalues --   -0.31457
 Alpha virt. eigenvalues --   -0.13360  -0.12364  -0.11098  -0.10180  -0.07381
 Alpha virt. eigenvalues --   -0.06572  -0.05045  -0.04218  -0.03822  -0.02757
 Alpha virt. eigenvalues --   -0.02188  -0.01815  -0.01322  -0.00284  -0.00022

 Mulliken charges:
               1
     1  C   -0.146456
     2  C   -0.131001
     3  C    0.067866
     4  C    0.019035
     5  C    0.355807
     6  C    0.296434
     7  C    0.440537
     8  C   -0.265202
     9  C   -0.266549
    10  C   -0.208349
    11  C   -0.208815
    12  C   -0.091720
    13  C    0.062944
    14  C   -0.097832
    15  C    0.013080
    16  C   -0.055269
    17  C   -0.206440
    18  N   -0.450987
    19  O   -0.393325
    20  O   -0.514501
    21  O   -0.537081
    22  H    0.101418
    23  H    0.111398
    24  H    0.168256
    25  H    0.129228
    26  H    0.132687
    27  H    0.161189
    28  H    0.123616
    29  H    0.140367
    30  H    0.122972
    31  H    0.170615
    32  H    0.185403
    33  H    0.167994
    34  H    0.143380
    35  H    0.099489
    36  H    0.149369
    37  H    0.187276
    38  H    0.178296
    39  H    0.177147
    40  H    0.333670
    41  H    0.334055
 Sum of Mulliken charges =   1.00000

 Dipole moment (field-independent basis, Debye):
    X=            -13.7723    Y=             -2.2818    Z=              0.1568  Tot=             13.9609
 Quadrupole moment (field-independent basis, Debye-Ang):
   XX=            -78.2469   YY=            -98.1904   ZZ=           -108.4016
   XY=            -12.0571   XZ=             -8.7452   YZ=              3.1886

 Normal termination of Gaussian 16 at Mon Feb  5 15:31:03 2024.
