 Gaussian 16, Revision A.03,
 Gaussian 16:  ES64L-G16RevA.03 25-Dec-2016

 ----------------------------------------------------------------------
 # HF/6-31G** SCRF=(Solvent=Water) POP=MK iop(6/50=1) geom=allcheck gue
 ss=read
 ----------------------------------------------------------------------

 Structure from the checkpoint file:  "G4.chk"
 --
 G4
 --
 Charge =  1 Multiplicity = 1

                         Standard orientation:
 ---------------------------------------------------------------------
 Center     Atomic      Atomic             Coordinates (Angstroms)
 Number     Number       Type             X           Y           Z
 ---------------------------------------------------------------------
      1          6           0        0.560173   -2.497287   -1.286130
      2          6           0        1.864800   -2.676426   -0.794753
      3          6           0       -0.214306   -1.395389   -0.864220
      4          6           0        0.365372   -0.544215    0.050667
      5          6           0        1.671636   -0.672763    0.485255
      6          6           0        2.444175   -1.752263    0.094468
      7          6           0        1.551148    2.319732   -0.121834
      8          6           0       -1.582521   -1.042336   -1.430883
      9          6           0        0.511618    3.014890   -0.982497
     10          6           0       -0.503721    2.000513   -1.515446
     11          6           0       -1.062676    0.243625    1.929660
     12          6           0       -2.250437   -0.683521    1.625442
     13          6           0        1.035787    1.408889    1.010415
     14          6           0       -1.238302    1.315182   -0.342780
     15          6           0       -2.247679    0.216277   -0.793140
     16          6           0       -0.271910    0.662455    0.665499
     17          6           0       -4.276162   -0.996903    0.179682
     18          7           0       -3.066324   -0.146500    0.462400
     19          8           0        2.730351    2.529796   -0.281651
     20          8           0        2.068605    0.399411    1.265982
     21          8           0        3.721195   -1.905146    0.521267
     22          1           0        0.161319   -3.204838   -2.007442
     23          1           0        2.442485   -3.530780   -1.135967
     24          1           0       -1.436930   -0.824436   -2.495618
     25          1           0       -2.240551   -1.916215   -1.385259
     26          1           0        0.023862    3.794144   -0.379247
     27          1           0        1.016532    3.501675   -1.818886
     28          1           0       -1.232217    2.515754   -2.152535
     29          1           0        0.007781    1.268702   -2.149138
     30          1           0       -1.438678    1.148449    2.429555
     31          1           0       -0.413427   -0.255485    2.654586
     32          1           0       -1.929949   -1.695391    1.371287
     33          1           0       -2.916585   -0.740026    2.489338
     34          1           0        0.925040    2.032635    1.905493
     35          1           0       -1.797103    2.115412    0.169864
     36          1           0       -2.973043    0.640943   -1.492379
     37          1           0       -3.959428   -1.974507   -0.178114
     38          1           0       -4.847306   -1.107469    1.101756
     39          1           0       -4.881290   -0.503964   -0.581953
     40          1           0       -3.454569    0.744285    0.790379
     41          1           0        4.105151   -2.698636    0.126274
 ---------------------------------------------------------------------

 SCF Done:  E(RHF) =  -934.349446694     A.U. after   14 cycles

 The electronic state is 1-A.
 Alpha  occ. eigenvalues --  -20.61081 -20.60246 -20.57368 -15.71344 -11.34960
 Alpha  occ. eigenvalues --  -11.32701 -11.32198 -11.31519 -11.31020 -11.30356
 Alpha  occ. eigenvalues --  -11.29990 -11.27860 -11.27479 -11.26532 -11.26075
 Alpha  occ. eigenvalues --  -11.25823 -11.25132 -11.25056 -11.25016 -11.24770
 Alpha  occ. eigenvalues --  -11.24636  -1.43340  -1.41219  -1.39853  -1.34220
 Alpha  occ. eigenvalues --   -1.19212  -1.14640  -1.10038  -1.07780  -1.04171
 Alpha  occ. eigenvalues --   -1.03544  -1.01415  -0.97396  -0.96578  -0.90960
 Alpha  occ. eigenvalues --   -0.87253  -0.86582  -0.85502  -0.83173  -0.79583
 Alpha  occ. eigenvalues --   -0.76153  -0.75342  -0.70955  -0.70177  -0.69595
 Alpha  occ. eigenvalues --   -0.69072  -0.67702  -0.67537  -0.65805  -0.64821
 Alpha  occ. eigenvalues --   -0.63634  -0.62909  -0.61535  -0.60972  -0.60459
 Alpha  occ. eigenvalues --   -0.59620  -0.59436  -0.58181  -0.57725  -0.56615
 Alpha  occ. eigenvalues --   -0.56076  -0.55737  -0.55176  -0.53914  -0.53469
 Alpha  occ. eigenvalues --   -0.52930  -0.51958  -0.50829  -0.50201  -0.48467
 Alpha  occ. eigenvalues --   -0.47364  -0.46877  -0.46320  -0.41400  -0.33556
 Alpha  occ. eigenvalues --   -0.31218
 Alpha virt. eigenvalues --    0.11743   0.13039   0.15030   0.17550   0.21532
 Alpha virt. eigenvalues --    0.21780   0.22949   0.23571   0.24897   0.25236
 Alpha virt. eigenvalues --    0.25780   0.26413   0.26883   0.27847   0.28103

 Mulliken charges:
               1
     1  C   -0.168258
     2  C   -0.210612
     3  C   -0.014610
     4  C   -0.071588
     5  C    0.412459
     6  C    0.334712
     7  C    0.550765
     8  C   -0.228713
     9  C   -0.314933
    10  C   -0.242240
    11  C   -0.216167
    12  C   -0.059594
    13  C    0.129837
    14  C   -0.141416
    15  C    0.025112
    16  C   -0.140066
    17  C   -0.171675
    18  N   -0.641583
    19  O   -0.572813
    20  O   -0.705254
    21  O   -0.686202
    22  H    0.182471
    23  H    0.189283
    24  H    0.188694
    25  H    0.175320
    26  H    0.174446
    27  H    0.175039
    28  H    0.165040
    29  H    0.154608
    30  H    0.167387
    31  H    0.181008
    32  H    0.200671
    33  H    0.209289
    34  H    0.206110
    35  H    0.177715
    36  H    0.220719
    37  H    0.188928
    38  H    0.195564
    39  H    0.194415
    40  H    0.400297
    41  H    0.385835
 Sum of Mulliken charges =   1.00000

 Dipole moment (field-independent basis, Debye):
    X=            -19.6399    Y=             -2.4791    Z=             -0.2164  Tot=             19.7969
 Quadrupole moment (field-independent basis, Debye-Ang):
   XX=            -84.9432   YY=            -99.4085   ZZ=           -109.2764
   XY=            -16.2331   XZ=            -10.6103   YZ=              5.6137

 ESP charges:
               1
     1  C   -0.313385
     2  C   -0.338253
     3  C    0.376285
     4  C   -0.583694
     5  C    0.553344
     6  C    0.196387
     7  C    0.598922
     8  C   -0.313781
     9  C   -0.268386
    10  C    0.034322
    11  C   -0.183525
    12  C   -0.017910
    13  C    0.107786
    14  C   -0.215356
    15  C    0.075548
    16  C    0.156952
    17  C   -0.429403
    18  N   -0.098653
    19  O   -0.577087
    20  O   -0.477521
    21  O   -0.633441
    22  H    0.199139
    23  H    0.229783
    24  H    0.134883
    25  H    0.135239
    26  H    0.106064
    27  H    0.104376
    28  H    0.063281
    29  H    0.060875
    30  H    0.080802
    31  H    0.128818
    32  H    0.125057
    33  H    0.133891
    34  H    0.125030
    35  H    0.119263
    36  H    0.147651
    37  H    0.213037
    38  H    0.196031
    39  H    0.197856
    40  H    0.370274
    41  H    0.479497
 Sum of ESP charges =   1.00000

 Normal termination of Gaussian 16 at Mon Feb  5 16:02:31 2024.
