 Gaussian 16, Revision A.03,
 Gaussian 16:  ES64L-G16RevA.03 25-Dec-2016

 --------------------------------
 # B3LYP/6-31G** opt=Modredundant
 --------------------------------

 --
 G7
 --
 Symbolic Z-matrix:
 Charge =  1 Multiplicity = 1

 SCF Done:  E(RB3LYP) =  -370.225656244     A.U. after   12 cycles
 SCF Done:  E(RB3LYP) =  -370.229854714     A.U. after   10 cycles
 SCF Done:  E(RB3LYP) =  -370.229916694     A.U. after    8 cycles
 SCF Done:  E(RB3LYP) =  -370.229925505     A.U. after    7 cycles
 Optimization completed.
    -- Stationary point found.

                         Standard orientation:
 ---------------------------------------------------------------------
 Center     Atomic      Atomic             Coordinates (Angstroms)
 Number     Number       Type             X           Y           Z
 ---------------------------------------------------------------------
      1          6           0        1.915977    0.583999    0.303675
      2          6           0        2.008934   -0.918657   -0.026950
      3          6           0        1.030547    1.386478   -0.682350
      4          6           0        0.701995   -1.649469   -0.398360
      5          6           0       -0.279764    1.926082   -0.051536
      6          6           0       -0.438257   -1.521501    0.641669
      7          6           0       -1.057529    1.013635    0.924357
      8          6           0       -1.482242   -0.393113    0.481683
      9          7           0       -2.067556   -0.368081   -0.932640
     10          1           0        1.602797    0.754349    1.337518
     11          1           0        2.925372    0.998504    0.225781
     12          1           0        2.773333   -1.104058   -0.788933
     13          1           0        2.404729   -1.431725    0.860914
     14          1           0        1.610339    2.242642   -1.035005
     15          1           0        0.800042    0.776328   -1.563929
     16          1           0        0.361712   -1.302312   -1.385757
     17          1           0        0.928290   -2.713035   -0.508616
     18          1           0       -0.105705    2.910141    0.390664
     19          1           0       -0.958873    2.147332   -0.894126
     20          1           0       -0.982294   -2.475788    0.635697
     21          1           0       -0.007951   -1.468347    1.645863
     22          1           0       -0.423154    0.878492    1.807653
     23          1           0       -1.907478    1.563009    1.346359
     24          1           0       -2.324563   -0.680550    1.118066
     25          1           0       -1.324853   -0.258840   -1.631786
     26          1           0       -2.724568    0.411017   -1.042030
     27          1           0       -2.572258   -1.235324   -1.142980
 ---------------------------------------------------------------------

 The electronic state is 1-A.
 Alpha  occ. eigenvalues --  -14.64758 -10.42469 -10.34863 -10.34576 -10.33026
 Alpha  occ. eigenvalues --  -10.32996 -10.31337 -10.30491 -10.30150  -1.18929
 Alpha  occ. eigenvalues --   -0.97653  -0.92245  -0.92002  -0.83438  -0.82760
 Alpha  occ. eigenvalues --   -0.77256  -0.76611  -0.76047  -0.72537  -0.69070
 Alpha  occ. eigenvalues --   -0.63758  -0.62746  -0.60207  -0.59159  -0.57209
 Alpha  occ. eigenvalues --   -0.56989  -0.54359  -0.52270  -0.51174  -0.50356
 Alpha  occ. eigenvalues --   -0.48821  -0.47896  -0.47458  -0.44778  -0.43713
 Alpha  occ. eigenvalues --   -0.43503
 Alpha virt. eigenvalues --   -0.15563  -0.10054  -0.08906  -0.06361  -0.05479
 Alpha virt. eigenvalues --   -0.02948  -0.01967  -0.01227   0.00137   0.00705
 Alpha virt. eigenvalues --    0.02067   0.02941   0.03478   0.03788   0.04912

 Mulliken charges:
               1
     1  C   -0.194030
     2  C   -0.195877
     3  C   -0.190006
     4  C   -0.201494
     5  C   -0.214567
     6  C   -0.201603
     7  C   -0.216745
     8  C   -0.027225
     9  N   -0.539076
    10  H    0.104938
    11  H    0.135329
    12  H    0.130381
    13  H    0.122673
    14  H    0.142640
    15  H    0.071521
    16  H    0.058736
    17  H    0.146779
    18  H    0.155106
    19  H    0.074255
    20  H    0.126707
    21  H    0.159943
    22  H    0.153731
    23  H    0.137874
    24  H    0.175567
    25  H    0.356750
    26  H    0.364683
    27  H    0.363009
 Sum of Mulliken charges =   1.00000

 Dipole moment (field-independent basis, Debye):
    X=             -6.6898    Y=             -1.3132    Z=             -2.3372  Tot=              7.2069
 Quadrupole moment (field-independent basis, Debye-Ang):
   XX=            -33.7398   YY=            -48.6685   ZZ=            -49.3305
   XY=              3.1221   XZ=              6.6568   YZ=              1.3332

 Normal termination of Gaussian 16 at Mon Feb  5 15:24:43 2024.
