 Gaussian 16, Revision A.03,
 Gaussian 16:  ES64L-G16RevA.03 25-Dec-2016

 ----------------------------------------------------------------------
 # HF/6-31G** SCRF=(Solvent=Water) POP=MK iop(6/50=1) geom=allcheck gue
 ss=read
 ----------------------------------------------------------------------

 Structure from the checkpoint file:  "G7.chk"
 --
 G7
 --
 Charge =  1 Multiplicity = 1

                         Standard orientation:
 ---------------------------------------------------------------------
 Center     Atomic      Atomic             Coordinates (Angstroms)
 Number     Number       Type             X           Y           Z
 ---------------------------------------------------------------------
      1          6           0        1.915977    0.583999    0.303675
      2          6           0        2.008934   -0.918657   -0.026950
      3          6           0        1.030547    1.386478   -0.682350
      4          6           0        0.701995   -1.649469   -0.398360
      5          6           0       -0.279764    1.926082   -0.051536
      6          6           0       -0.438257   -1.521501    0.641669
      7          6           0       -1.057529    1.013635    0.924357
      8          6           0       -1.482242   -0.393113    0.481683
      9          7           0       -2.067556   -0.368081   -0.932640
     10          1           0        1.602797    0.754349    1.337518
     11          1           0        2.925372    0.998504    0.225781
     12          1           0        2.773333   -1.104058   -0.788933
     13          1           0        2.404729   -1.431725    0.860914
     14          1           0        1.610339    2.242642   -1.035005
     15          1           0        0.800042    0.776328   -1.563929
     16          1           0        0.361712   -1.302312   -1.385757
     17          1           0        0.928290   -2.713035   -0.508616
     18          1           0       -0.105705    2.910141    0.390664
     19          1           0       -0.958873    2.147332   -0.894126
     20          1           0       -0.982294   -2.475788    0.635697
     21          1           0       -0.007951   -1.468347    1.645863
     22          1           0       -0.423154    0.878492    1.807653
     23          1           0       -1.907478    1.563009    1.346359
     24          1           0       -2.324563   -0.680550    1.118066
     25          1           0       -1.324853   -0.258840   -1.631786
     26          1           0       -2.724568    0.411017   -1.042030
     27          1           0       -2.572258   -1.235324   -1.142980
 ---------------------------------------------------------------------

 SCF Done:  E(RHF) =  -367.762432371     A.U. after   11 cycles

 The electronic state is 1-A.
 Alpha  occ. eigenvalues --  -15.71144 -11.31727 -11.24808 -11.24593 -11.23707
 Alpha  occ. eigenvalues --  -11.23672 -11.22784 -11.22468 -11.22176  -1.32324
 Alpha  occ. eigenvalues --   -1.11553  -1.05891  -1.05609  -0.94213  -0.93732
 Alpha  occ. eigenvalues --   -0.83192  -0.81296  -0.78266  -0.77155  -0.75694
 Alpha  occ. eigenvalues --   -0.66238  -0.65146  -0.63873  -0.61478  -0.59827
 Alpha  occ. eigenvalues --   -0.59668  -0.56555  -0.53283  -0.51844  -0.51687
 Alpha  occ. eigenvalues --   -0.49284  -0.48536  -0.48279  -0.45410  -0.44397
 Alpha  occ. eigenvalues --   -0.43930
 Alpha virt. eigenvalues --    0.15739   0.20279   0.21937   0.23664   0.24265
 Alpha virt. eigenvalues --    0.25954   0.27088   0.28835   0.29036   0.29783
 Alpha virt. eigenvalues --    0.30316   0.32258   0.32313   0.32935   0.34147

 Mulliken charges:
               1
     1  C   -0.236074
     2  C   -0.216145
     3  C   -0.234434
     4  C   -0.238189
     5  C   -0.246214
     6  C   -0.240123
     7  C   -0.252589
     8  C   -0.012217
     9  N   -0.633438
    10  H    0.123477
    11  H    0.128942
    12  H    0.126006
    13  H    0.116998
    14  H    0.139506
    15  H    0.107204
    16  H    0.095751
    17  H    0.148473
    18  H    0.149351
    19  H    0.111511
    20  H    0.153927
    21  H    0.164666
    22  H    0.154020
    23  H    0.160685
    24  H    0.212435
    25  H    0.395388
    26  H    0.409745
    27  H    0.411337
 Sum of Mulliken charges =   1.00000

 Dipole moment (field-independent basis, Debye):
    X=             -8.5380    Y=             -1.6518    Z=             -2.9902  Tot=              9.1961
 Quadrupole moment (field-independent basis, Debye-Ang):
   XX=            -35.0241   YY=            -51.2863   ZZ=            -50.0868
   XY=              3.5922   XZ=              7.3029   YZ=              1.4420

 ESP charges:
               1
     1  C    0.070201
     2  C   -0.122880
     3  C   -0.191618
     4  C    0.170492
     5  C    0.073374
     6  C   -0.357389
     7  C   -0.300977
     8  C    0.381284
     9  N   -0.771786
    10  H    0.007972
    11  H    0.010000
    12  H    0.036181
    13  H    0.025525
    14  H    0.065697
    15  H    0.064065
    16  H   -0.045511
    17  H    0.016017
    18  H    0.051239
    19  H   -0.018130
    20  H    0.107998
    21  H    0.124084
    22  H    0.105427
    23  H    0.094835
    24  H    0.066873
    25  H    0.441645
    26  H    0.452949
    27  H    0.442430
 Sum of ESP charges =   1.00000

 1\1\GINC-CPU187\SP\RHF\6-31G(d,p)\C8H18N1(1+)\FEBRERMA\05-Feb-2024\0\\
 # HF/6-31G** SCRF=(Solvent=Water) POP=MK iop(6/50=1) geom=allcheck gue
 ss=read\\G7\\1,1\C,0,8.8484450172,38.092938294,30.7345361155\C,0,7.830
 78059,38.7957986727,29.8146031776\C,0,9.0502855333,36.5915507544,30.41
 00345985\C,0,7.9219542089,38.5111168239,28.3010756441\C,0,10.453999233
 5,36.2562545405,29.8415469515\C,0,9.3096226157,38.7768788758,27.667072
 5615\C,0,11.0885161897,37.2314890645,28.823631431\C,0,10.3211883601,37
 .6141334412,27.5508115462\N,0,9.6851087568,36.3810020646,26.9040353028

 Normal termination of Gaussian 16 at Mon Feb  5 16:01:25 2024.
